# vtk DataFile Version 4.1 
COMMENT
ASCII
DATASET STRUCTURED_POINTS 
DIMENSIONS 300 300 1 
ORIGIN 0 0 0
SPACING 0.020943951023931952 0.020943951023931952 0 
POINT_DATA 90000
SCALARS U double 1
LOOKUP_TABLE default
1.134474843623611e-19
7.6008178794898205e-19
2.0061294174388637e-18
3.987501075576245e-18
7.90274598680683e-18
1.5784959229772875e-17
3.028906414351221e-17
5.528630575448575e-17
9.658622227374414e-17
1.6210949849212576e-16
2.6438118086023704e-16
4.377541263298089e-16
8.089553205672687e-16
1.8308334098851923e-15
4.9623576040664005e-15
1.4454060753742278e-14
4.163985262117152e-14
1.1446240134591214e-13
2.970821071399714e-13
7.27404337208004e-13
1.6839819911683198e-12
3.697680937693217e-12
7.728614028493503e-12
1.5441031801824833e-11
2.9646576878382805e-11
5.50917873804882e-11
1.0001539889762387e-10
1.7940573005410106e-10
3.2177295614743046e-10
5.826134868394322e-10
1.0696269512283916e-09
1.9871928945529496e-09
3.7108879442285077e-09
6.907818534367635e-09
1.2727223057704624e-08
2.3101255266751042e-08
4.12213606839636e-08
7.229195777660212e-08
1.2470380404109924e-07
2.1179497986065816e-07
3.543412980849521e-07
5.83790234986197e-07
9.459790422557607e-07
1.5046589645710313e-06
2.3436787996432508e-06
3.5663861755741014e-06
5.291007339886284e-06
7.641759633421956e-06
1.0737278407298628e-05
1.4680173574510412e-05
1.9553208181880423e-05
2.5427462142699688e-05
3.238494025487969e-05
4.0552413130433686e-05
5.013627108715828e-05
6.144249900403209e-05
7.48645635316779e-05
9.082706573033033e-05
0.0001096843052812643
0.00013158772439961176
0.0001563499836443414
0.00018334128323229158
0.00021145205303957674
0.00023914460529361455
0.0002645971668667714
0.00028592168305051357
0.0003014177436801367
0.000309814156907212
0.00031045026589610243
0.00030336127305788846
0.0002892526715896061
0.00026937302191385544
0.00024531543109604506
0.000218790782182537
0.0001914171656202728
0.00016456063509883188
0.00013924596814605573
0.00011613787817200532
9.557824463799629e-05
7.765674592432619e-05
6.229155127651663e-05
4.930185837487985e-05
3.846211049003504e-05
2.9535660166782227e-05
2.2291330280471372e-05
1.6508944803431968e-05
1.1979825311114956e-05
8.506521032337988e-06
5.903822761357208e-06
4.001272872625184e-06
2.64633381280624e-06
1.707113145207663e-06
1.0738158641520508e-06
6.585898030690077e-07
3.9389480084369827e-07
2.2982369564626783e-07
1.309050144585501e-07
7.286579461698914e-08
3.969764014351755e-08
2.1213835813312557e-08
1.1152718963434498e-08
5.791507694933319e-09
2.9863375254534243e-09
1.5392881394665898e-09
7.995039164394102e-10
4.2220821857427777e-10
2.2871908425804424e-10
1.2804348533275258e-10
7.440106473749883e-11
4.4886401401535444e-11
2.8016279295460147e-11
1.7974708331168735e-11
1.1760716683689692e-11
7.784020320402926e-12
5.172739193753125e-12
3.4291526690693094e-12
2.2559830318127504e-12
1.4670961691473489e-12
9.406503823050378e-13
5.939462404526841e-13
3.6951130908694244e-13
2.2703842013867197e-13
1.3838845691700287e-13
8.422885622781252e-14
5.160012800761518e-14
3.207540936971213e-14
2.0356640629960798e-14
1.3224651701595954e-14
8.783280869859804e-15
5.9412326144351835e-15
4.076047550685384e-15
2.828618877823048e-15
1.984755594616182e-15
1.4105252761895509e-15
1.0182984302439924e-15
7.489940854429434e-16
5.623178868045186e-16
4.3084016860533636e-16
3.360439946021108e-16
2.655667882402426e-16
2.112825957273806e-16
1.679938940208534e-16
1.325346184186572e-16
1.0312136930327087e-16
7.884553697963847e-17
5.926046680420311e-17
4.406430380382964e-17
3.289866017373909e-17
2.5275823825963014e-17
2.0622948750919817e-17
1.8405368166658905e-17
1.8276524042372108e-17
2.0206743189202065e-17
2.4566603489392068e-17
3.2174505433209896e-17
4.434909234284624e-17
6.302164748761964e-17
9.09513599145115e-17
1.3204341133269128e-16
1.91699566169568e-16
2.7704441080714705e-16
3.9678687682901094e-16
5.6042509500440935e-16
7.765236170998749e-16
1.049940307462066e-15
1.3782262100593896e-15
1.7480522809710555e-15
2.1335334066225247e-15
2.499829688397545e-15
2.81749369591556e-15
3.0957012111354027e-15
3.44553898211326e-15
4.18728166593144e-15
6.016685910979827e-15
1.0242283638477642e-14
1.9094636352365532e-14
3.608440893740285e-14
6.634334226703902e-14
1.1681670821797127e-13
1.9608919486510408e-13
3.135330732219463e-13
4.774094795434629e-13
6.916251936604233e-13
9.512466152683236e-13
1.2380009061424194e-12
1.5196463482118375e-12
1.7628152228513378e-12
1.9806658856491894e-12
2.35990355073819e-12
3.556383071984312e-12
7.332140562110026e-12
1.785932141307622e-11
4.4287492942605e-11
1.0563797364551801e-10
2.398675747447161e-10
5.201941564819193e-10
1.0836977500464408e-09
2.1800203260192583e-09
4.2518616693462254e-09
8.06394894924142e-09
1.4903014141542745e-08
2.687740463257609e-08
4.7350134521896214e-08
8.154187143206141e-08
1.373388277863448e-07
2.263335381953413e-07
3.651140422922483e-07
5.76800777562462e-07
8.928134387051701e-07
1.3548337612667405e-06
2.0169097966196106e-06
2.9476047239377928e-06
4.231992377126586e-06
5.97309149469067e-06
8.291965652162247e-06
1.1325197750169053e-05
1.5217884532439739e-05
2.0109952620671125e-05
2.6113895208732453e-05
3.328344761151201e-05
4.1575570602679514e-05
5.081221610511805e-05
6.06527642069323e-05
7.059098058098368e-05
7.998964795743788e-05
8.815989349028968e-05
9.448043566416807e-05
9.853674302380803e-05
0.00010024620413035786
9.992897054588277e-05
9.829025761284575e-05
9.629995086667599e-05
9.498525101722025e-05
9.518256094237138e-05
9.731444169532816e-05
0.00010125720715638273
0.00010634226465303642
0.00011149588241522768
0.00011548064165366744
0.00011717208518418269
0.00011579635895583314
0.0001110707657135895
0.00010322193778917683
9.289308802823416e-05
8.097982885331938e-05
6.844562592129511e-05
5.616248381128123e-05
4.480538276244355e-05
3.4808421927625084e-05
2.637373898215795e-05
1.9514946300099322e-05
1.411526856605798e-05
9.98448853009144e-06
6.905084330352463e-06
4.663980721954844e-06
3.0706881015598448e-06
1.964910217195614e-06
1.217307373372321e-06
7.266277495452771e-07
4.1547062880976694e-07
2.2596983319032834e-07
1.159373211141253e-07
5.5566636652966106e-08
2.462206402346142e-08
1.002992023978615e-08
3.838489378270705e-09
1.552248783448816e-09
8.488083976569668e-10
6.614757872042998e-10
5.77863086711888e-10
4.831303201036799e-10
3.720688302157339e-10
2.643928151874556e-10
1.7502762867618431e-10
1.0896267081627193e-10
6.428441211035736e-11
3.61570260529274e-11
1.9477593960277482e-11
1.0085125589032247e-11
5.033822349061228e-12
2.4286074631052157e-12
1.1359119168385403e-12
5.169893432166747e-13
2.301146037194904e-13
1.0083710399878043e-13
4.386376967194417e-14
1.911584096107636e-14
8.41671711715958e-15
3.764098691269056e-15
1.7105446679533695e-15
7.866416203707194e-16
3.6369903263178686e-16
1.676082341445015e-16
7.586510403772996e-17
3.298611082843774e-17
1.3694153255699354e-17
5.833009414323421e-18
2.848326102411746e-18
1.3496903639422689e-18
3.5297723640709196e-19
1.863301392551779e-19
5.466318156327855e-19
8.723537752503544e-19
1.2764019913674627e-18
2.6594496460834865e-18
5.934122634928689e-18
1.202279957220175e-17
2.300171560903367e-17
4.3318116464568404e-17
8.082482121284028e-17
1.502873932987085e-16
2.8670959442282884e-16
5.880805797984309e-16
1.3425840728272283e-15
3.382948086770472e-15
9.00279643242819e-15
2.4154220372805362e-14
6.334063786656853e-14
1.597264432710573e-13
3.844787269834199e-13
8.809256197376258e-13
1.9201546944412024e-12
3.984986278420927e-12
7.891582760741902e-12
1.4973793576308633e-11
2.7414826881606095e-11
4.8974831788194476e-11
8.673081428671902e-11
1.5514871280724627e-10
2.8498609787565136e-10
5.412985489278767e-10
1.0573121431385263e-09
2.0943695104047123e-09
4.143175423558289e-09
8.089443806555439e-09
1.547977020259484e-08
2.8943139977170736e-08
5.2850057455725565e-08
9.431957541921709e-08
1.6469917783103037e-07
2.816143168196732e-07
4.7157214809884127e-07
7.728687198290772e-07
1.2381867087491296e-06
1.935860077918716e-06
2.9485216197681187e-06
4.368045449028121e-06
6.28665359504934e-06
8.785865773628616e-06
1.1927273480741653e-05
1.575098586917958e-05
2.0287711677493986e-05
2.5587650036230153e-05
3.176340803413136e-05
3.903628153298315e-05
4.7768163589628654e-05
5.84585210828188e-05
7.169003653687121e-05
8.801822777159238e-05
0.00010781729506500702
0.00013111174028703382
0.0001574350722562709
0.00018575832384687153
0.00021452019826566785
0.00024176923531792923
0.0002654016554209598
0.0002834536727815125
0.0002943911233929589
0.00029733706602823854
0.00029219069176983614
0.0002796153227473637
0.0002609029730233285
0.00023774982736689097
0.00021199393294993055
0.00018536940080390735
0.00015932079597885343
0.00013490146362435848
0.00011275690269819696
9.317551548096282e-05
7.617853130506916e-05
6.161979378742283e-05
4.927255191198125e-05
3.889073212766781e-05
3.0242487654713122e-05
2.3121287522659687e-05
1.734326242287018e-05
1.2739359922833079e-05
9.14841515367207e-06
6.4140651946063586e-06
4.385730203786665e-06
2.9222588324601766e-06
1.8963348491492036e-06
1.1980542664758978e-06
7.36778249920961e-07
4.410804850849012e-07
2.571209903489021e-07
1.460251379709572e-07
8.086574112385835e-08
4.372375174966807e-08
2.312695002031421e-08
1.1999480459832189e-08
6.131147858680357e-09
3.1017857849552152e-09
1.5651778073683699e-09
7.952956202073585e-10
4.1159062122634437e-10
2.1960383354381416e-10
1.2207164240255052e-10
7.112666705914893e-11
4.343450856006736e-11
2.7633294880258163e-11
1.8141383871582888e-11
1.2160530462133144e-11
8.241885228165955e-12
5.601846264723381e-12
3.793650197999987e-12
2.5473672774398067e-12
1.690226682727035e-12
1.1058799473583707e-12
7.129220823878125e-13
4.531049253949891e-13
2.8447659598662995e-13
1.7703859081296896e-13
1.0971713891780744e-13
6.807447732997522e-14
4.2506096927034805e-14
2.6818158524079543e-14
1.7133922714592875e-14
1.1088019542082634e-14
7.262138482278758e-15
4.81060902562671e-15
3.225019296173642e-15
2.1934404383191803e-15
1.5195141185157678e-15
1.0768830245136693e-15
7.832723647830344e-16
5.850954375316399e-16
4.477358791627919e-16
3.4910851526415627e-16
2.7532126992103736e-16
2.1778654126786099e-16
1.7133747100457842e-16
1.3300572666929734e-16
1.0120357916276528e-16
7.514312993023732e-17
5.440797987227543e-17
3.86514743467594e-17
2.7422825818143456e-17
2.0120653373873148e-17
1.6054059146182432e-17
1.4569366559626847e-17
1.518966420221429e-17
1.7721986086229325e-17
2.2312643319724864e-17
2.94662637327244e-17
4.007481004670774e-17
5.551494289311495e-17
7.785514295249316e-17
1.1016469653137244e-16
1.5684034806131796e-16
2.237773298736692e-16
3.1813205855300894e-16
4.473840440222633e-16
6.174413794307987e-16
8.296908761837268e-16
1.0772204676848452e-15
1.3409964929534926e-15
1.5876327601192997e-15
1.7716274606786845e-15
1.8466593860521843e-15
1.7927838044363774e-15
1.6690761727979516e-15
1.7040497124106485e-15
2.438044963463657e-15
4.930873302157056e-15
1.1041262356504457e-14
2.3767999704481067e-14
4.7611699449620975e-14
8.886809976838105e-14
1.5570163794831363e-13
2.57787381493514e-13
4.0529111995281474e-13
6.07070116522994e-13
8.683981915224498e-13
1.1895923014837161e-12
1.5692992760727533e-12
2.0211292088676527e-12
2.6221119541467e-12
3.6303812134441992e-12
5.745319195432837e-12
1.0649903153371977e-11
2.20959393710887e-11
4.80076958252124e-11
1.0445058928425053e-10
2.229320483729048e-10
4.6349948887030047e-10
9.376336384414202e-10
1.8471690284373805e-09
3.548526650554682e-09
6.655403610012464e-09
1.2197471608737355e-08
2.1856974572837298e-08
3.8308375454523106e-08
6.56871105246169e-08
1.1021093680557968e-07
1.809710335403046e-07
2.9090140747400293e-07
4.5792803631411057e-07
7.062991007945554e-07
1.0681091172459459e-06
1.5850505421696694e-06
2.310439351786674e-06
3.311526874707763e-06
4.6719672095688236e-06
6.493990111513386e-06
8.89929832890845e-06
1.202702384986552e-05
1.6026451674490292e-05
2.104204320062219e-05
2.7189068328536138e-05
3.452031398901762e-05
4.29879297485638e-05
5.240886700425994e-05
6.244611234386223e-05
7.261895897166973e-05
8.235195587901717e-05
9.10631159954772e-05
9.827876278683689e-05
0.00010374881830735106
0.00010752783145736589
0.00010998878872656532
0.0001117511209579994
0.00011352894095784743
0.00011593308442858804
0.00011928084474992265
0.0001234714236739148
0.00012796942536441515
0.00013190718763039945
0.00013428003015681633
0.00013417984095527935
0.00013100214461827847
0.00012457299902532583
0.00011516954170834988
0.00010344083124471808
9.026205681822112e-05
7.656740234033107e-05
6.320343085264043e-05
5.08301796209474e-05
3.987852537980086e-05
3.055657853101309e-05
2.2888803210284344e-05
1.676971051120194e-05
1.2017332964541223e-05
8.417366754052711e-06
5.754410791987307e-06
3.830755267353201e-06
2.475333017275693e-06
1.5460623106403323e-06
9.28446137977587e-07
5.324921750142829e-07
2.8917407938216884e-07
1.469948011694547e-07
6.881553430841038e-08
2.8952321090864682e-08
1.0530457513333969e-08
3.129753520445447e-09
7.835500861656898e-10
3.848302739336452e-10
5.116715095234366e-10
6.350545138435036e-10
6.357083872375605e-10
5.426918700410011e-10
4.127012028552405e-10
2.872789142761268e-10
1.8624937321084764e-10
1.1378135228040946e-10
6.60383342003611e-11
3.663460542289077e-11
1.9515819496468024e-11
1.0022373373445134e-11
4.97963500763441e-12
2.402555523181503e-12
1.1303699581050183e-12
5.212011731694745e-13
2.369137320229128e-13
1.0686952089108949e-13
4.816417594543976e-14
2.1813217630516023e-14
9.963601363255434e-15
4.5928044454597e-15
2.131326345491464e-15
9.908279460428729e-16
4.581480825975565e-16
2.0873363037522919e-16
9.290257027209166e-17
4.045258496858178e-17
1.7493285955290834e-17
7.403036735962125e-18
2.663422509563045e-18
5.802291258638008e-19
1.3128733976108956e-18
8.620333873290261e-19
4.0622401536934884e-19
2.115296876771463e-19
8.75050154090678e-19
2.42650906948193e-18
4.823458927294436e-18
9.250947933509825e-18
1.8817422569958825e-17
3.896133136319631e-17
8.014586953540826e-17
1.671977884308924e-16
3.6515110875687894e-16
8.496205186745382e-16
2.0947712988169387e-15
5.350685783335628e-15
1.3781911739637899e-14
3.5004229496770436e-14
8.633500255367148e-14
2.0481150133504714e-13
4.646335646197101e-13
1.0044980362988242e-12
2.0656006173315886e-12
4.038669885513493e-12
7.521697177192767e-12
1.3419121996355936e-11
2.3213413911216517e-11
3.979287286575806e-11
6.97459562211525e-11
1.2898120312981422e-10
2.550599459028646e-10
5.319050615300774e-10
1.1358252714214506e-09
2.416570566797504e-09
5.034344405950443e-09
1.018470826055775e-08
1.9959371706068992e-08
3.791158074640747e-08
6.991539741085958e-08
1.2541554864207976e-07
2.1913399102501646e-07
3.731953346892668e-07
6.194208556744154e-07
1.0012140091672756e-06
1.5740861179722183e-06
2.4036304012024678e-06
3.5599394998308294e-06
5.1083908288417266e-06
7.098530997641005e-06
9.555179165819522e-06
1.2477952780066365e-05
1.585583890280335e-05
1.9700860390532713e-05
2.4098797232930404e-05
2.9266319737200343e-05
3.5595479977410994e-05
4.366205099594034e-05
5.4177090042254163e-05
6.787269315821249e-05
8.53314063819894e-05
0.0001067892474782275
0.00013195809564331087
0.0001599181373706028
0.00018912171665401396
0.00021752720230929287
0.00024285060400395673
0.00026289190999794604
0.0002758713617573304
0.0002807048781114463
0.0002771600131197336
0.0002658613018002848
0.0002481491398031018
0.00022582960804723654
0.00020087476332254642
0.0001751383681306239
0.00015014060666604145
0.0001269518807555159
0.00010617826507553121
8.802780939950333e-05
7.242333515947281e-05
5.912547689489456e-05
4.783743390945076e-05
3.827577616583184e-05
3.0204782076599924e-05
2.3441476372389084e-05
1.784314759366314e-05
1.3289013749711587e-05
9.66450686036977e-06
6.852357403918791e-06
4.730892302942478e-06
3.17758411344132e-06
2.075035227172303e-06
1.316882771457592e-06
8.120109629612296e-07
4.864561904452438e-07
2.831664644502246e-07
1.602108439960238e-07
8.815377068809142e-08
4.721607230226669e-08
2.4652703551871493e-08
1.2575559257120873e-08
6.2885481453181e-09
3.0986567415724737e-09
1.516185902183086e-09
7.449713689776503e-10
3.7313515150544444e-10
1.9393337456507387e-10
1.0635475701866302e-10
6.215303005040652e-11
3.866373923977483e-11
2.5325723982470897e-11
1.7199404094147155e-11
1.1929183032663246e-11
8.347474940665742e-12
5.840428555529048e-12
4.060046512788775e-12
2.7921069523209228e-12
1.894193349112795e-12
1.2656775203490458e-12
8.325804350613671e-13
5.395003482505807e-13
3.4492171803588296e-13
2.1812979084793132e-13
1.3689409889811076e-13
8.55623051576409e-14
5.3441987070639086e-14
3.3447403856107636e-14
2.1012763024795802e-14
1.3263529206196694e-14
8.418543230274422e-15
5.381648846987052e-15
3.4766232878922633e-15
2.2824590280101045e-15
1.534143120014579e-15
1.0636410831894753e-15
7.64441009077754e-16
5.696169214647371e-16
4.3777156006393533e-16
3.4381409613409633e-16
2.7289500874276025e-16
2.1648031536558752e-16
1.698677171965544e-16
1.3063594608402187e-16
9.766589199477125e-17
7.050072833558539e-17
4.891718958802389e-17
3.265214785844908e-17
2.1264682516372873e-17
1.4119440502121963e-17
1.0464318177412434e-17
9.559179490605293e-18
1.0805568166883024e-17
1.3837579504738688e-17
1.8560585362228632e-17
2.515883195409814e-17
3.412143310986144e-17
4.634476092819362e-17
6.334771721120534e-17
8.758279917246887e-17
1.2274788867620463e-16
1.73918385866082e-16
2.47251384063923e-16
3.489925122676438e-16
4.835728541783337e-16
6.507479072994221e-16
8.420313715983487e-16
1.0371447671806435e-15
1.2018827458148823e-15
1.2897513827221658e-15
1.2510708951373774e-15
1.055053301583791e-15
7.327147245115529e-16
4.511927258956573e-16
6.324942806396253e-16
2.1305570327253983e-15
6.477494911618178e-15
1.6199918017974535e-14
3.518607897500472e-14
6.905291032973029e-14
1.254228606069497e-13
2.1398982263018465e-13
3.462701980175637e-13
5.350792728428251e-13
7.94197790915573e-13
1.139682864393493e-12
1.5963521453502344e-12
2.217086728736586e-12
3.1305164393357095e-12
4.647607667987228e-12
7.485575351824326e-12
1.3218983191820106e-11
2.5161371382679106e-11
5.004729809847471e-11
1.0117379653786776e-10
2.0414581990993144e-10
4.071534210502947e-10
7.989118017178227e-10
1.5391405118344748e-09
2.9088176375348456e-09
5.390365362750481e-09
9.791127801936298e-09
1.7426405506239984e-08
3.0380016539360766e-08
5.18598273129387e-08
8.666222201597634e-08
1.417534347964307e-07
2.2696947379340024e-07
3.558351525042332e-07
5.465138961892954e-07
8.229304381548432e-07
1.2161588773676698e-06
1.766224391152161e-06
2.5244897357784227e-06
3.5567219150034247e-06
4.946678639887289e-06
6.799555187150952e-06
9.24390238357313e-06
1.2429820519828765e-05
1.6520691118795678e-05
2.1675920133765444e-05
2.802362805842532e-05
3.562516819935278e-05
4.443744315958906e-05
5.4283101850461484e-05
6.484103264734751e-05
7.566816390001698e-05
8.625723031602356e-05
9.61243732609756e-05
0.00010490797720448046
0.00011245060988412298
0.00011883426173990412
0.00012434829095229251
0.00012938867477176795
0.00013431088018812793
0.00013927829700923711
0.00014415526706845405
0.00014848381797593848
0.0001515583250344265
0.00015258087052976379
0.0001508536002588073
0.0001459527829465872
0.00013783655402199686
0.00012686098603875164
0.00011370800007098062
9.92530438929453e-05
8.441271473478022e-05
7.001053250165765e-05
5.668631553722291e-05
4.485760670091742e-05
3.472676889851951e-05
2.6318646645028794e-05
1.9531767942657805e-05
1.4189168235797388e-05
1.0080307372891462e-05
6.990826188213155e-06
4.720684840058874e-06
3.093208656385119e-06
1.958070266412761e-06
1.1908314288479907e-06
6.908841348699014e-07
3.788392615579477e-07
1.9381400435605422e-07
9.073031973407308e-08
3.76225188978492e-08
1.2976765206289994e-08
3.1931895570692444e-09
3.0321452415356296e-10
6.315430501822906e-11
4.900675640910892e-10
8.357193042915416e-10
9.368832741315805e-10
8.498140694984205e-10
6.738640770448925e-10
4.850594693537384e-10
3.2381427728365367e-10
2.0320966500103108e-10
1.2098770375161062e-10
6.88019056361674e-11
3.7565592731915444e-11
1.9779596861372347e-11
1.008402781717398e-11
4.998027226594206e-12
2.4188001605679555e-12
1.1485051860422004e-12
5.37902775228781e-13
2.498838323824634e-13
1.1576467539880872e-13
5.3724644593456424e-14
2.5048759949017962e-14
1.1742085210233341e-14
5.525880837984863e-15
2.6014311500918683e-15
1.2187191420010995e-15
5.646834609762036e-16
2.5739795985107965e-16
1.1509911265320085e-16
5.0262139112084665e-17
2.0976728242128352e-17
8.001544633745312e-18
2.848623829897342e-18
4.755986577437225e-18
1.980815871599571e-18
4.793787486579889e-19
7.150545013048221e-20
5.953171535804069e-19
1.3023187099618837e-18
1.8483762561665104e-18
3.2773755816420177e-18
7.769952243522634e-18
1.8283281897586196e-17
4.04702734294103e-17
8.906566277618006e-17
2.032130692876234e-16
4.850886209668636e-16
1.1999717401428098e-15
3.02728988097664e-15
7.657282878375632e-15
1.9121950959748187e-14
4.655537188395022e-14
1.0944967130730815e-13
2.4666851999369594e-13
5.299232773696309e-13
1.0802580529461925e-12
2.0820761938101402e-12
3.786506904427642e-12
6.507080704953856e-12
1.0667844232125848e-11
1.7130458134914757e-11
2.8404494424944985e-11
5.2071736590716147e-11
1.0899215021431928e-10
2.5079125826984964e-10
5.940128783170018e-10
1.3826052446608763e-09
3.0968682308904658e-09
6.6367075524803924e-09
1.3620923773511704e-08
2.686172469715267e-08
5.109019954788535e-08
9.401235376810973e-08
1.6774425134209896e-07
2.9057651134940045e-07
4.888200518384073e-07
7.981786792343169e-07
1.2637386380318402e-06
1.9374289034973864e-06
2.8719740186166067e-06
4.111258454953943e-06
5.678823183160153e-06
7.56868748390607e-06
9.74499338324997e-06
1.215772396087793e-05
1.477947776041728e-05
1.7662217339681237e-05
2.100378878854888e-05
2.5204431311682616e-05
3.0887425839149524e-05
3.88594179798871e-05
4.999692135411111e-05
6.506492415662728e-05
8.449665197887982e-05
0.00010818318110044793
0.00013533037501918378
0.00016443366149083343
0.00019339816609990345
0.0002197975630133724
0.00024122869720144782
0.0002556911195259468
0.0002619099538620895
0.0002595310749548227
0.0002491472013271472
0.00023215409345167604
0.00021047603455867788
0.0001862278568544336
0.00016138959836682176
0.00013755831410429702
0.00011581478958313355
9.67102140284567e-05
8.034924357387774e-05
6.652863976205773e-05
5.488747175615143e-05
4.503366166505592e-05
3.6627217723941984e-05
2.941681958233042e-05
2.3238774288999267e-05
1.799349251607565e-05
1.3614776310979344e-05
1.0043281442274034e-05
7.210001391693717e-06
5.030610532524856e-06
3.408199768469353e-06
2.2406000144295372e-06
1.4287131112245912e-06
8.833656458676957e-07
5.295119596454682e-07
3.0769499863004417e-07
1.7333672017346854e-07
9.468079157438119e-08
5.016482357423722e-08
2.5799637934937205e-08
1.2896303482930252e-08
6.279884728361922e-09
2.9911689650336964e-09
1.4035863070145548e-09
6.56830977720038e-10
3.1258722262730923e-10
1.5546771803083465e-10
8.322195374666522e-11
4.884250771667358e-11
3.1321291219141163e-11
2.1472023207455895e-11
1.5319828748797258e-11
1.1129412920851191e-11
8.112208519049155e-12
5.879110000027034e-12
4.213135792208583e-12
2.975621407600728e-12
2.0672118101532065e-12
1.41129769084667e-12
9.467400144300388e-13
6.244506567928669e-13
4.054997060020364e-13
2.5972916296285715e-13
1.6446079645535497e-13
1.0318920809658021e-13
6.429358561397388e-14
3.9847315945674405e-14
2.459501668132738e-14
1.5133146365886022e-14
9.295013484912556e-15
5.715437140854876e-15
3.5378044299776926e-15
2.2247941849554586e-15
1.439405515952139e-15
9.710457686953754e-16
6.894098079248545e-16
5.152520503481658e-16
4.015536827880451e-16
3.2129703745600375e-16
2.595838346456218e-16
2.0865346400668485e-16
1.648146996095536e-16
1.2659669358565548e-16
9.364274932550238e-17
6.604231403733539e-17
4.3926657030857656e-17
2.7240728395501762e-17
1.5650347755712986e-17
8.558407455550125e-18
5.198848279740718e-18
4.76710499577415e-18
6.542984209679758e-18
9.973636865485549e-18
1.4709926125526717e-17
2.062100884011932e-17
2.783635973595167e-17
3.6868382800125155e-17
4.8843356929460765e-17
6.581339895007418e-17
9.104723671829304e-17
1.2912209219515336e-16
1.855883748769909e-16
2.65980223259593e-16
3.740216021280652e-16
5.090455409115077e-16
6.629115392431151e-16
8.170806935240879e-16
9.410112075228749e-16
9.937243632423202e-16
9.313686000808382e-16
7.250261262691357e-16
3.950001277672597e-16
7.039294101196479e-17
8.560486612442794e-17
1.1275531313179708e-15
4.447312569380967e-15
1.2145291804976958e-14
2.7527857217108144e-14
5.5515185559721635e-14
1.0305982894337547e-13
1.7952843533608254e-13
2.9704036615494315e-13
4.709157131318498e-13
7.207882032929522e-13
1.073810816388928e-12
1.5731211912628143e-12
2.2980500258103574e-12
3.408738799064239e-12
5.239259706470951e-12
8.484388295865778e-12
1.4563868527209906e-11
2.631852239866716e-11
4.9319028850760286e-11
9.428943400173645e-11
1.815214736679146e-10
3.4876141721633314e-10
6.64981712369068e-10
1.2537918650015154e-09
2.332033411133722e-09
4.2712611871028914e-09
7.692054835709742e-09
1.3602881169126497e-08
2.3595739327778955e-08
4.010920744043278e-08
6.676532103969911e-08
1.0878069198772139e-07
1.7344733530238462e-07
2.706806477729629e-07
4.136493651892803e-07
6.195438453867355e-07
9.106081086886114e-07
1.3156471009171225e-06
1.8722891280521717e-06
2.6302702403237945e-06
3.6558254040635034e-06
5.036838012187062e-06
6.887688509826222e-06
9.3518518656296e-06
1.2599496848790811e-05
1.6817086119959002e-05
2.2186781887418852e-05
2.8855688616931473e-05
3.6898522112289775e-05
4.628139933383748e-05
5.6837603660508284e-05
6.826655772653501e-05
8.016339062407073e-05
9.20782854691919e-05
0.00010359405598599245
0.00011440079950194784
0.00012434243791949935
0.00013341479239125785
0.0001417087969324425
0.00014931179495794063
0.00015619763123608048
0.00016214486332601506
0.00016671703328757925
0.00016932008993742511
0.00016932602375630207
0.00016622832362988822
0.0001597831045304844
0.00015009418146480418
0.0001376189198032626
0.00012309683964432128
0.00010742515976863092
9.151731585397264e-05
7.617943477639527e-05
6.202841650649596e-05
4.9459500806558294e-05
3.8657085000787265e-05
2.9634090953034917e-05
2.228327654292493e-05
1.6426982041757062e-05
1.1857221861645676e-05
8.363346418978905e-06
5.748273734126134e-06
3.836163853700539e-06
2.474737179552138e-06
1.534848126235389e-06
9.089994340784178e-07
5.096166501054876e-07
2.6729757975097525e-07
1.2895475650379973e-07
5.572507812553798e-08
2.062281089477262e-08
6.0478168492028636e-09
1.3488470762621408e-09
6.496289511138798e-10
1.0852922201753754e-09
1.5049847418835348e-09
1.6112697128529589e-09
1.4518245288291219e-09
1.1595803900002973e-09
8.458440710589083e-10
5.739388089432865e-10
3.6669464819536837e-10
2.2249929667617643e-10
1.2904135799212578e-10
7.190182675308432e-11
3.866208420522078e-11
2.014437798381984e-11
1.0212488630005573e-11
5.059342460518562e-12
2.4606748417326265e-12
1.1807302954450988e-12
5.617770730659141e-13
2.66291454938829e-13
1.2625863943696443e-13
6.004134341260247e-14
2.866641457319447e-14
1.3730356448738226e-14
6.580732445705644e-15
3.143750110053533e-15
1.4899349001130724e-15
6.972486951173901e-16
3.2069534941918535e-16
1.4405408800777073e-16
6.258261077477691e-17
2.6185512737307428e-17
1.0882428449606076e-17
1.621225658793793e-17
6.705549149874657e-18
2.5267204662462464e-18
1.2805636669843478e-18
1.2529889469406221e-18
1.0342658957767345e-18
4.796855577830428e-19
7.941086977969034e-19
3.3056586919190625e-18
8.855925222329301e-18
1.9614604619377312e-17
4.361404500950189e-17
1.0336288596942264e-16
2.5607599199291646e-16
6.462917556606154e-16
1.6387027776706626e-15
4.13460723425121e-15
1.0280033184491883e-14
2.494164482102408e-14
5.8525021701305e-14
1.317645460777882e-13
2.8257455714913743e-13
5.731404443863275e-13
1.0914709051169454e-12
1.936836070524871e-12
3.180414643582176e-12
4.823022226364797e-12
6.878135968964126e-12
9.971983124117645e-12
1.7390198728711597e-11
4.0457904459272597e-11
1.1069066070284579e-10
3.0453844669255527e-10
7.901742763699278e-10
1.911362091224932e-09
4.331979680069435e-09
9.277149288517094e-09
1.8922689185016523e-08
3.6999693596390384e-08
6.968458539010046e-08
1.2681608703603073e-07
2.2338828314008544e-07
3.810807974505139e-07
6.292925271924232e-07
1.0047960280513644e-06
1.5488837557335044e-06
2.3010139233593976e-06
3.2888172400033615e-06
4.51610782561755e-06
5.953077663505661e-06
7.535359729690968e-06
9.179736137171173e-06
1.082236439142584e-05
1.2479504073693563e-05
1.4321319929553677e-05
1.6738845227252675e-05
2.0376658754213152e-05
2.610363054829095e-05
3.4904041803856e-05
4.7691054671411103e-05
6.506955180376326e-05
8.709835369847319e-05
0.00011311446296530859
0.00014167802904370237
0.0001706745172126879
0.00019757425890534283
0.00021980845020337007
0.00023518665069618456
0.00024226472432555067
0.00024057999225769361
0.000230701033343146
0.0002140847704257577
0.0001927801825348603
0.0001690526487992146
0.00014501604364895374
0.00012234885362008427
0.00010214094717380306
8.487970935749657e-05
7.054991439337852e-05
5.880009229691754e-05
4.912305469806992e-05
4.1007784012393115e-05
3.4038142515794815e-05
2.7933630309750867e-05
2.25428348201211e-05
1.7808240216780823e-05
1.372170829097524e-05
1.0285366495326302e-05
7.485835553489342e-06
5.283331365562083e-06
3.6127777567022692e-06
2.3921093488449894e-06
1.5330095558204306e-06
9.50593481177157e-07
5.701828882187143e-07
3.307435622243809e-07
1.8548575265323909e-07
1.005421487156866e-07
5.2659838658173615e-08
2.6644196469883603e-08
1.302262819132996e-08
6.151376700775388e-09
2.812989109097305e-09
1.2510167264292445e-09
5.468994559594331e-10
2.404416182511996e-10
1.1084363163857154e-10
5.672143728315461e-11
3.3572148286975695e-11
2.274644047563857e-11
1.679224953727385e-11
1.2868466089295145e-11
9.933484668169324e-12
7.608096879012969e-12
5.741353635840889e-12
4.255054230499751e-12
3.092192859448927e-12
2.2018453152638177e-12
1.536024406218492e-12
1.0501168784263875e-12
7.040917624801736e-13
4.635098720168243e-13
3.000069692679604e-13
1.912066408595374e-13
1.201705745149704e-13
7.45628646717982e-14
4.5709408269603243e-14
2.7695665148263702e-14
1.659097972004221e-14
9.835338880182541e-15