# vtk DataFile Version 4.1 
COMMENT
ASCII
DATASET STRUCTURED_POINTS 
DIMENSIONS 300 300 1 
ORIGIN 0 0 0
SPACING 0.020943951023931952 0.020943951023931952 0 
POINT_DATA 90000
SCALARS U double 1
LOOKUP_TABLE default
1.2982536957655078e-18
2.9252203915031696e-18
6.5895843756221945e-18
1.4834566127319023e-17
3.335951773115873e-17
7.490330329472017e-17
1.6785048554801715e-16
3.7521718389609154e-16
8.363194656583732e-16
1.8576919719257894e-15
4.110176831620202e-15
9.05306365943867e-15
1.983950308666554e-14
4.323211399606656e-14
9.361623874716147e-14
2.013176772458591e-13
4.2963981246274125e-13
9.093155425439092e-13
1.9072104954297635e-12
3.961276226135269e-12
8.141347175430522e-12
1.654433600886806e-11
3.321683195512729e-11
6.583923665643987e-11
1.2873312041271388e-10
2.481054970685549e-10
4.709622132519446e-10
8.798414876544261e-10
1.616438922615556e-09
2.9182438685802414e-09
5.173276781994637e-09
8.998496763141573e-09
1.5346763253674707e-08
2.5644444908228683e-08
4.195578142836616e-08
6.715998985203022e-08
1.051126391237312e-07
1.607452119177728e-07
2.400394287148326e-07
3.4980177404411115e-07
4.971667343532539e-07
6.887827629181188e-07
9.296882029071363e-07
1.221963676287441e-06
1.5633409089179303e-06
1.9460328310605386e-06
2.35609604760063e-06
2.7736155601260835e-06
3.1738966228279506e-06
3.529666392645534e-06
3.8140624565937343e-06
4.003972322847692e-06
4.083150462907365e-06
4.04452665594381e-06
3.891247839245857e-06
3.6362405322895354e-06
3.3003812083983776e-06
2.909639286708994e-06
2.4917408363467174e-06
2.0729493856630934e-06
1.675472787983322e-06
1.31581851808473e-06
1.0041926816450932e-06
7.448307564463472e-07
5.37005077094437e-07
3.7639435545570126e-07
2.5651793974074774e-07
1.700083987076606e-07
1.0959010511840978e-07
6.87217330571326e-08
4.192918848464633e-08
2.4895518968706142e-08
1.4387784051983173e-08
8.09495680398485e-09
4.434427613974462e-09
2.3651472600184453e-09
1.2279133820432438e-09
6.201823539517526e-10
3.044785491571666e-10
1.4521427766576052e-10
6.733408036679593e-11
3.0503571291630226e-11
1.3679363996146915e-11
6.2284291904886e-12
2.9784158694012856e-12
1.5315598089451126e-12
8.422760472167875e-13
4.858311950172891e-13
2.99008582261209e-13
2.1629072259057645e-13
2.0383440475622604e-13
2.378586430476146e-13
2.9987714703607156e-13
3.7623459845210656e-13
4.57570248380017e-13
5.375864811408256e-13
6.116874961214583e-13
6.760354990369837e-13
7.272045512721486e-13
7.623070770898826e-13
7.793383215082277e-13
7.774983083264662e-13
7.573388844602351e-13
7.206863331837416e-13
6.703724845360296e-13
6.098541881619724e-13
5.428116037842957e-13
4.727984698121254e-13
4.0298570729342774e-13
3.360071355117274e-13
2.7389272065229525e-13
2.1806463359332806e-13
1.6937265742062428e-13
1.2815289689361466e-13
9.430163644438226e-14
6.736087520999024e-14
4.6612679305701934e-14
3.117743095481138e-14
2.010861720626971e-14
1.2475865518791262e-14
7.429233939658531e-15
4.240878251850729e-15
2.324045076586461e-15
1.2327046699759749e-15
6.472474194135665e-16
3.522840692860627e-16
2.1194594674464235e-16
1.4667346800781727e-16
1.138405925493229e-16
9.310022005899722e-17
7.627596297790408e-17
6.102118611962806e-17
4.724968921701071e-17
3.5391630383198284e-17
2.571697927167317e-17
1.819716135655412e-17
1.2581044259415355e-17
8.515713467910498e-18
5.641802797237316e-18
3.647254571336411e-18
2.286684112551806e-18
1.3793760072596263e-18
7.970885086086287e-19
4.490278753284593e-19
2.681321374794133e-19
2.0074874071152596e-19
2.0058092010975844e-19
2.2693281920750535e-19
2.465276628553402e-19
2.3750571502050844e-19
1.9379812911891117e-19
1.280953586332932e-19
7.21373750532734e-20
7.392696865121196e-20
1.9244993387682442e-19
4.912782604982702e-19
1.0327980860128447e-18
1.87463726718751e-18
3.0692034001445268e-18
4.666220106926681e-18
6.716952864178097e-18
9.277641883313436e-18
1.240871600764457e-17
1.6165892063923614e-17
2.0579565174678994e-17
2.562029407582448e-17
3.115098237309843e-17
3.687080103612952e-17
4.226232625752585e-17
4.656273587402721e-17
4.879512614957463e-17
4.7924991972228695e-17
4.3269583857072756e-17
3.5432756846323815e-17
2.8382505649909913e-17
3.411821618728308e-17
8.33902238869518e-17
2.5086803275990544e-16
7.153139570231841e-16
1.9054280332978553e-15
4.856633181118462e-15
1.2088156195346772e-14
2.9759824437691014e-14
7.295304446660421e-14
1.7848948549225412e-13
4.3565492251102316e-13
1.0586657137723156e-12
2.554397526718468e-12
6.102477694865151e-12
1.4396995785239793e-11
3.3465109214583416e-11
7.649540186498539e-11
1.716799588985652e-10
3.778264001672485e-10
8.145267124542914e-10
1.7186717177315083e-09
3.546931582721449e-09
7.155353154830022e-09
1.4102967711231464e-08
2.714574435428403e-08
5.1007803988240357e-08
9.353264307994618e-08
1.6731781146345783e-07
2.919067305266883e-07
4.965322931757327e-07
8.232605645079786e-07
1.3301602373663143e-06
2.0938356932618157e-06
3.210352106383851e-06
4.793333558620452e-06
6.9679495357354216e-06
9.859756132654273e-06
1.3578033127792774e-05
1.819437992075843e-05
2.371878609495052e-05
3.007689291791825e-05
3.7093285647483686e-05
4.448592981647128e-05
5.1875916547617486e-05
5.881441036625776e-05
6.482538471821225e-05
6.945906885926398e-05
7.23479561861797e-05
7.32556722356003e-05
7.210958444012891e-05
6.901080455973947e-05
6.42196004123148e-05
5.8119116250506336e-05
5.116445367399376e-05
4.382656184846896e-05
3.654053380561374e-05
2.9665964286020463e-05
2.3463703318715732e-05
1.8089625823155135e-05
1.3602869198677648e-05
9.983995492285663e-06
7.1579107019092165e-06
5.016928394925087e-06
3.4406620448173155e-06
2.3109738518200334e-06
1.5215905580441527e-06
9.829809939842044e-07
6.236122587069666e-07
3.888269481976163e-07
2.3844247026842466e-07
1.4390199474729566e-07
8.551266151158451e-08
5.0055697376267495e-08
2.887177944931192e-08
1.6413173726806108e-08
9.197815768734043e-09
5.081640690799842e-09
2.7681592803765667e-09
1.4868909700813447e-09
7.875845469026423e-10
4.114077076976186e-10
2.1194866158204895e-10
1.0769513403648939e-10
5.3974688984091405e-11
2.6682764490202677e-11
1.301163214860208e-11
6.258956868025014e-12
2.9699207036268117e-12
1.39013417165383e-12
6.418362121637714e-13
2.9229743082914516e-13
1.3129166213000436e-13
5.816434041810451e-14
2.5415665801984406e-14
1.0953587297465456e-14
4.654352972185328e-15
1.9483240757879878e-15
8.030103812575903e-16
3.2624447084110074e-16
1.3107445690445596e-16
5.21433442773497e-17
2.038602841970969e-17
7.717014321401224e-18
2.821799872287565e-18
1.0328059291003956e-18
3.9705970176486773e-19
1.5522697517618988e-19
5.49187849165252e-20
1.6081511077715497e-20
4.0843189423650156e-21
1.3567102942109262e-21
9.33736040189863e-22
6.755488948175656e-22
2.7466749674989823e-22
1.5143844011976887e-22
4.515235419543636e-22
9.859246536799735e-22
1.984164408356849e-21
4.391633689709605e-21
9.980583852217093e-21
2.2502127883937644e-20
5.0576514844217763e-20
1.1372975593917726e-19
2.5592254402328624e-19
5.762744060696477e-19
3.6801496122856256e-19
8.532283764136102e-19
1.977591568542164e-18
4.580390073787466e-18
1.059705518719604e-17
2.4480032396455596e-17
5.644226539444753e-17
1.298300204932381e-16
2.9780209988532905e-16
6.808571012837344e-16
1.550750047085352e-15
3.516855513130182e-15
7.936879977411593e-15
1.7814315881383944e-14
3.974107637485745e-14
8.805908491386318e-14
1.9367439005407825e-13
4.22494147306114e-13
9.134728288746141e-13
1.9559764853925953e-12
4.144611251626924e-12
8.683796855608482e-12
1.7975911689759547e-11
3.6734597888330614e-11
7.40474104594197e-11
1.4711011126287427e-10
2.878212143665028e-10
5.541186211112963e-10
1.0489079813627815e-09
1.95067587788698e-09
3.5612942427947998e-09
6.3778060533376675e-09
1.1195541529344389e-08
1.9248777995059103e-08
3.239098696092754e-08
5.330799974377229e-08
8.57429778220977e-08
1.346918567433478e-07
2.0650413159326908e-07
3.08801871204757e-07
4.5011860040020323e-07
6.391704644203467e-07
8.837154555453757e-07
1.1890373678557717e-06
1.5562033566136598e-06
1.9803665154585293e-06
2.449482899663963e-06
2.943844725218191e-06
3.436764056400326e-06
3.896563081576634e-06
4.289761471205259e-06
4.585057030232835e-06
4.757453730891658e-06
4.791779419049651e-06
4.684901529955067e-06
4.44618976987472e-06
4.096132866262538e-06
3.6633978546014887e-06
3.1809238231603946e-06
2.681792304237952e-06
2.1955866753278914e-06
1.7457690014403372e-06
1.34832999643302e-06
1.0116859873999004e-06
7.375744635352593e-07
5.225766019179068e-07
3.5987664995199164e-07
2.409320905633711e-07
1.5683841935879808e-07
9.929071800849126e-08
6.114299773857554e-08
3.663119799644753e-08
2.1355218170111256e-08
1.2116532413360972e-08
6.691541286630711e-09
3.597194457005493e-09
1.882188113232202e-09
9.584408648301729e-10
4.74963619526856e-10
2.2918194232635437e-10
1.0788835601169942e-10
4.978151667765964e-11
2.270871719574599e-11
1.0365300224259839e-11
4.785102906295592e-12
2.2337083611099622e-12
1.0343896046738465e-12
4.602932002597021e-13
1.9754647177422218e-13
1.0220247187812569e-13
9.956823924842403e-14
1.4638706027990708e-13
2.1710539507169572e-13
2.976326326425613e-13
3.809833606939805e-13
4.637332000284514e-13
5.434883407170893e-13
6.175314417083647e-13
6.824909710030705e-13
7.346813016338235e-13
7.707330686521822e-13
7.882130124921324e-13
7.860487246432432e-13
7.64683559314448e-13
7.259721083806473e-13
6.728812542542196e-13
6.090858204235465e-13
5.385453675242351e-13
4.651279495463494e-13
3.9231828130032544e-13
3.230216441663165e-13
2.5945711157392313e-13
2.031255657213571e-13
1.5483691498922725e-13
1.147828264911135e-13
8.26428793658795e-14
5.771204646779391e-14
3.9036431523204e-14
2.5543718235446042e-14
1.6156075931025045e-14
9.876632285859765e-15
5.8454089184467075e-15
3.365610894070386e-15
1.9051800452233915e-15
1.0808311495007047e-15
6.322599749112261e-16
3.9321307100426803e-16
2.6426878477547685e-16
1.9013357689158163e-16
1.424814690834849e-16
1.0810457423806183e-16
8.144115269581785e-17
6.030991697840356e-17
4.375128735103608e-17
3.110497008735824e-17
2.1721223626706048e-17
1.4939443546325498e-17
1.0142106838208738e-17
6.802709305213765e-18
4.5058699548157715e-18
2.9433385363616602e-18
1.8963843661009933e-18
1.2136468166793387e-18
7.900895776891604e-19
5.498482066260181e-19
4.340470744348997e-19
3.9374288714889054e-19
3.8754298489379265e-19
3.8287827336981247e-19
3.59387826655277e-19
3.125665501523249e-19
2.559183721493748e-19
2.2040601973929006e-19
2.508866198494995e-19
4.002258521945014e-19
7.225991463107054e-19
1.2678738736438008e-18
2.0787990846310577e-18
3.192025501553513e-18
4.642867774475503e-18
6.472401816161528e-18
8.734196215070205e-18
1.1496969920377818e-17
1.4839046601002375e-17
1.8830972432380864e-17
2.3504413959736578e-17
2.880873748256288e-17
3.4561695889580476e-17
4.040766953610274e-17
4.5806710875206316e-17
5.0092742138058855e-17
5.2666623922036036e-17
5.3447102638650177e-17
5.3832719485291717e-17
5.873342220096658e-17
8.095897607942355e-17
1.5100118279249458e-16
3.394824261556947e-16
8.098648442445963e-16
1.944287378083839e-15
4.647342230625122e-15
1.1083873124308776e-14
2.647314845712504e-14
6.34371552597055e-14
1.5245813675304442e-13
3.6674064171814647e-13
8.804524997996951e-13
2.1027946413621245e-12
4.9806056249564535e-12
1.1666786898503071e-11
2.6962980959514635e-11
6.135771326563397e-11
1.3726082728462666e-10
3.0145395371100323e-10
6.492574997681271e-10
1.370064675160779e-09
2.830501333007854e-09
5.721412378618833e-09
1.1308848758610923e-08
2.1847228481461985e-08
4.123331025527859e-08
7.599827772903583e-08
1.3674386328114061e-07
2.4011405934269757e-07
4.1133930825821625e-07
6.872764455731272e-07
1.119681196184745e-06
1.7781912775089387e-06
2.752193974232678e-06
4.15046550526606e-06
6.0973022960959535e-06
8.72394454235048e-06
1.2154543501925e-05
1.648681519083772e-05
2.176881407321694e-05
2.797475799156657e-05
3.498419113413436e-05
4.256953661798322e-05
5.03968344361305e-05
5.804293021101274e-05
6.502964252810103e-05
7.087194929025043e-05
7.513378876870409e-05
7.74826038805025e-05
7.773306461024503e-05
7.58718608908555e-05
7.205885676870197e-05
6.660445768874122e-05
5.992763422114435e-05
5.2502524948632875e-05
4.480310353801087e-05
3.725480066874226e-05
3.0199577657689928e-05
2.3877546192690457e-05
1.842475985282376e-05
1.3884071105808707e-05
1.0224416108184949e-05
7.36362458806627e-06
5.190593656769325e-06
3.5839787256586305e-06
2.425995889245742e-06
1.611159469338968e-06
1.050616791844361e-06
6.731610906755971e-07
4.2407762389433627e-07
2.6282866802839066e-07
1.603299015699555e-07
9.630485764557679e-08
5.6979357842332134e-08
3.321519537013122e-08
1.908076174715144e-08
1.080351119773279e-08
6.029776031240783e-09
3.317809636899261e-09
1.7999323395799714e-09
9.62833377242715e-10
5.078886735250514e-10
2.6420263538942446e-10
1.3554457230641219e-10
6.858427157860375e-11
3.42279449245089e-11
1.684854733410454e-11
8.180413191677625e-12
3.917585703149273e-12
1.8504815168448515e-12
8.621065765644018e-13
3.9612522127599736e-13
1.795090456397295e-13
8.02239599863187e-14
3.5353863823873645e-14
1.53595540245231e-14
6.5764953261967986e-15
2.7749420495288032e-15
1.1544381715447963e-15
4.738451008265236e-16
1.917514995499652e-16
7.624195208812739e-17
2.967386645996961e-17
1.1336342418552082e-17
4.3040457422065064e-18
1.6374976528753538e-18
6.128840632288113e-19
2.169710639878791e-19
7.14007531056525e-20
2.3078253858692222e-20
8.380681577882807e-21
3.54148682561151e-21
1.3038003322971216e-21
2.1739821428967915e-22
2.9829380203533563e-23
1.7027474380036567e-22
2.2106684718793248e-22
3.709125662237133e-22
9.806350254262244e-22
2.3911671511355796e-21
5.522455311944096e-21
1.2766060254711596e-20
2.95737509780945e-20
6.850062621224133e-20
1.5874158307836157e-19
1.0003588652769462e-19
2.3872741817611586e-19
5.695478721203839e-19
1.357759098666482e-18
3.2330584163827736e-18
7.687127916247132e-18
1.8243784577462727e-17
4.320084390194723e-17
1.0202675725443074e-16
2.4020763448517822e-16
5.63510806350386e-16
1.3165484738190468e-15
3.061615798849112e-15
7.082500706570322e-15
1.628808587850938e-14
3.7214241502801324e-14
8.441038386552465e-14
1.8993591673951959e-13
4.236494469970312e-13
9.359385504279998e-13
2.0463190062595672e-12
4.42407549450168e-12
9.449934081657718e-12
1.99261784289681e-11
4.1441932572265046e-11
8.493951296995406e-11
1.7142284252800124e-10
3.4037309756019474e-10
6.643719887747006e-10
1.2737452073569981e-09
2.396725325149624e-09
4.422535508328269e-09
7.996469059252936e-09
1.4156610863472003e-08
2.451990367937075e-08
4.151889621253383e-08
6.867765502904332e-08
1.108945420262883e-07
1.7467132119209272e-07
2.681962854856082e-07
4.0116240020980725e-07
5.841931118066478e-07
8.277740464498572e-07
1.1406610036154563e-06
1.5278558640124726e-06
1.9883973204936664e-06
2.513367224715842e-06
3.084614424776701e-06
3.674692816990146e-06
4.248364007751934e-06
4.765731076198307e-06
5.186700677087929e-06
5.476109627406124e-06
5.608608057163366e-06
5.572351501030129e-06
5.370750766814107e-06
5.0219209374936595e-06
4.555956938873956e-06
4.010610741723214e-06
3.42623674259973e-06
2.8409412191711992e-06
2.28672206307843e-06
1.7870805638937215e-06
1.3562259767016324e-06
9.996733083328663e-07
7.158233108104251e-07
4.98036245022425e-07
3.367524351336765e-07
2.2133181442848546e-07
1.4143270534779785e-07
8.788580311273798e-08
5.3117727253671864e-08
3.1231842839824585e-08
1.7867795929199407e-08
9.947753523532451e-09
5.390264280837981e-09
2.8429432823283846e-09
1.4596950671945435e-09
7.298674540188781e-10
3.5569679515887267e-10
1.6924833681569129e-10
7.886207293763213e-11
3.612792716933324e-11
1.632590448477664e-11
7.265129774601885e-12
3.1399973549108393e-12
1.2710971655320048e-12
4.4614222719985577e-13
1.1489181862607557e-13
1.926975859322527e-14
3.2440068137444604e-14
9.091117485108152e-14
1.6465127017774028e-13
2.418174564652563e-13
3.1953006761684525e-13
3.9803420410011197e-13
4.773729819182362e-13
5.559787885470476e-13
6.305624464530177e-13
6.967218466552463e-13
7.49821208513425e-13
7.858424926754399e-13
8.020365611546868e-13
7.972946898112595e-13
7.722289803476494e-13
7.290001126771598e-13
6.709635940786191e-13
6.022194686014383e-13
5.271460267907495e-13
4.4998039465061676e-13
3.7448560351537496e-13
3.0372186957962783e-13
2.39923345027114e-13
1.8447109801163057e-13
1.3794691778878167e-13
1.0024875752354188e-13
7.074617738865309e-14
4.845314750482574e-14
3.219669347763356e-14
2.0763539482793838e-14
1.3012773881010932e-14
7.94951538660297e-15
4.761137616023005e-15
2.8225596886883897e-15
1.6797594023270338e-15
1.0210293948442075e-15
6.441243025725262e-16
4.2513398743561297e-16
2.924276867318094e-16
2.0689390303798323e-16
1.482213124951681e-16
1.0615602185189888e-16
7.540432678512154e-17
5.2939317685579784e-17
3.673345905927717e-17
2.524269196214169e-17
1.7231506522708723e-17
1.1721104295550523e-17
7.964020023904494e-18
5.4138321381024284e-18
3.687189982536369e-18
2.5239028701100454e-18
1.750652000101649e-18
1.2513644907341106e-18
9.451359400690784e-19
7.713972211725571e-19
6.814933958241963e-19
6.355395275193104e-19
6.031019439660662e-19
5.659394990044589e-19
5.20895309558039e-19
4.812289821263531e-19
4.752854009940337e-19
5.423133450639676e-19
7.262489280597393e-19
1.0690860209885344e-18
1.6058290297016772e-18
2.362832212451997e-18
3.3605789439079016e-18
4.620770140353848e-18
6.176186704919007e-18
8.080435094513336e-18
1.0413685300543702e-17
1.3280204301820494e-17
1.679422561870927e-17
2.1052799228137518e-17
2.6097976783925662e-17
3.1876146313011575e-17
3.820969085023146e-17
4.480596919661722e-17
5.134286329143523e-17
5.769439722689624e-17
6.44085000641389e-17
7.365663663081667e-17
9.112511567992325e-17
1.2991045942930956e-16
2.189003038617274e-16
4.2154757757950777e-16
8.792729714735923e-16
1.9140479112801268e-15
4.2742764762075815e-15
9.728458398185497e-15
2.2500763206035013e-14
5.273070096675395e-14
1.2474732942412254e-13
2.966375151365465e-13
7.058738298151569e-13
1.6739559382018966e-12
3.941963679805574e-12
9.190111981336002e-12
2.115890336808133e-11
4.801275644104532e-11
1.0720184111227206e-10
2.3520680413622636e-10
5.065465055453131e-10
1.069811952011724e-09
2.2139659874279076e-09
4.486559305075073e-09
8.897657124614696e-09
1.725950963183899e-08
3.273157317778807e-08
6.066051413209769e-08
1.0981909355978204e-07
1.9414576234949684e-07
3.3505324564482166e-07
5.642912412204398e-07
9.271989292653974e-07
1.485959912447842e-06
2.322188052177327e-06
3.5378709510260533e-06
5.253459544555766e-06
7.6018316908969115e-06
1.071710164978524e-05
1.471789624949886e-05
1.9685794154447897e-05
2.564102037681297e-05
3.251894372018686e-05
4.0152048430201646e-05
4.8262402130253683e-05
5.646886413962414e-05
6.431125068747443e-05
7.129062251811776e-05
7.692137589606894e-05
8.078774328667357e-05
8.259551671772494e-05
8.220991981842505e-05
7.967272187777443e-05
7.519548836604049e-05
6.913040149339926e-05
6.192424807451624e-05
5.406396327929904e-05
4.602294991064954e-05
3.821623403738289e-05
3.096985954034001e-05
2.450657968175251e-05
1.8946737013817514e-05
1.4320901413618118e-05
1.0589686556792247e-05
7.66615870634669e-06
5.437095317793309e-06
3.780632327008429e-06
2.5791654826084557e-06
1.7274626012127039e-06
1.136665390513869e-06
7.352047987087659e-07
4.676990639620372e-07
2.927584302193578e-07
1.803892006359685e-07
1.0945002669449442e-07
6.541036473160317e-08
3.851256131631199e-08
2.2344240026514648e-08
1.2776282555919792e-08
7.200737015381335e-09
4.000669421276501e-09
2.191367305305687e-09
1.183485282905784e-09
6.302450929154098e-10
3.309666668434285e-10
1.7140039687903364e-10
8.754108189768367e-11
4.409598628729139e-11
2.1906967463826923e-11
1.0734074851623295e-11
5.187323713997817e-12
2.472352794015221e-12
1.1621269688425688e-12
5.387105661836628e-13
2.462572298824572e-13
1.1099627126670385e-13
4.932279231003901e-14
2.1604381722800255e-14
9.327591472968163e-15
3.969725532389271e-15
1.665261917124309e-15
6.880719611904586e-16
2.7965957265120617e-16
1.1172080569665361e-16
4.393923799015047e-17
1.707130585876024e-17
6.551484973315177e-18
2.4622547517782166e-18
8.954555281542827e-19
3.1533585033991583e-19
1.1031715283483395e-19
3.9614999128301265e-20
1.4280242800201218e-20
4.600926309077862e-21
1.2161839457052612e-21
4.080976992680454e-22
2.05363607912874e-22
3.3346441261014476e-23
4.753634149641065e-23
2.5204274713893968e-22
5.711410598729938e-22
1.2861607931242994e-21
3.087997430009942e-21
7.37850361470104e-21
1.7569895997851443e-20
4.191605486711527e-20
2.6076815844887815e-20
6.406760206559348e-20
1.574297801785351e-19
3.8641680962931667e-19
9.47294441787435e-19
2.3191155918667466e-18
5.667691929343165e-18
1.3822003944802417e-17
3.362446650213801e-17
8.156065116057782e-17
1.9717375740639714e-16
4.748379065719393e-16
1.1385047679549195e-15
2.7162019289276504e-15
6.443923230014674e-15
1.519156107773512e-14
3.55632262849029e-14
8.26060112219596e-14
1.9023191505900576e-13
4.339632993395379e-13
9.79822342039715e-13
2.187692838421248e-12
4.8259847333957595e-12
1.0508979080196319e-11
2.2569662160532158e-11
4.7763559669928645e-11
9.951667997080836e-11
2.03960979325439e-10
4.1084594434459343e-10
8.126891794109651e-10
1.5773214938502165e-09
3.0012792702521007e-09
5.594049509560761e-09
1.0205307586526756e-08
1.8207698470240012e-08
3.174432735328944e-08
5.4040224474705015e-08
8.975785888716756e-08
1.4534675002770531e-07
2.2929798880435437e-07
3.521729965785694e-07
5.262457899137666e-07
7.645988300117064e-07
1.0795648730260545e-06
1.480524482650148e-06
1.9712466001814284e-06
2.5471672634061924e-06
3.193182098260281e-06
3.882609472528536e-06
4.5778996708278355e-06
5.233395047921188e-06
5.800020507842971e-06
6.231299445251998e-06
6.489684583237804e-06
6.551999890692763e-06
6.412890229773382e-06
6.0855633284385045e-06
5.5996863342984755e-06
4.996907719325894e-06
4.324948203985305e-06
3.6314228615993375e-06
2.9584850798453837e-06
2.3390729314463664e-06
1.795101565672417e-06
1.3375107325016132e-06
9.677494350266876e-07
6.80114576458819e-07
4.643570260560011e-07
3.080851195133652e-07
1.9867186306836625e-07
1.2455082725356667e-07
7.592723074645512e-08
4.5017581135416165e-08
2.596501232519266e-08
1.4571330669064227e-08
7.957813533516764e-09
4.2301827394857155e-09
2.189340741472018e-09
1.103688679040754e-09
5.423434471386382e-10
2.600603501577571e-10
1.2185051012926842e-10
5.5836897505906955e-11
2.4991819197465993e-11
1.0852335233930563e-11
4.491737504538446e-12
1.7054940700718673e-12
5.472034076327373e-13
1.2033766480437318e-13
1.0178215293946302e-14
2.535692940765786e-14
8.112018317665297e-14
1.4467900947431166e-13
2.0769191698926874e-13
2.715543677665644e-13
3.3963798772138593e-13
4.136992309621374e-13
4.927743284568661e-13
5.734161032235685e-13
6.505306551755463e-13
7.183848521792796e-13
7.715595126744066e-13
8.057303233443112e-13
8.182088702331083e-13
8.082084933578979e-13
7.768339384311052e-13
7.26830720858577e-13
6.621608484141337e-13
5.874876855840249e-13
5.07651821218215e-13
4.2720534168154707e-13
3.500503638460274e-13
2.7920507768560606e-13
2.167006624732834e-13
1.6359676347245555e-13
1.2009195710223212e-13
8.569873539437431e-14
5.945008644827589e-14
4.010674158870636e-14
2.6340096163886667e-14
1.6874448096788095e-14
1.0581738231122966e-14
6.530548054970918e-15
3.997298107814686e-15
2.450764624757225e-15
1.5213746009671205e-15
9.650133513148076e-16
6.282804997416644e-16
4.191727300808426e-16
2.84686372680431e-16
1.9511651465874426e-16
1.338972846822248e-16
9.15217652452523e-17
6.217615593535421e-17
4.201288397785066e-17
2.831929006793213e-17
1.9125368249164942e-17
1.3002488142341598e-17
8.936211563176029e-18
6.227714261805734e-18
4.410914728622432e-18
3.1837480472721164e-18
2.3539328831815717e-18
1.798607806123824e-18
1.4361669281705109e-18
1.2082008202513713e-18
1.0694583181547872e-18
9.838437408877109e-19
9.244718591341358e-19
8.757549314183615e-19
8.355560060588079e-19
8.157750368449341e-19
8.404019935158166e-19
9.409922448087167e-19
1.1504900299109925e-18
1.4970888212886366e-18
2.000146762085928e-18
2.669943025069846e-18
3.512268273236633e-18
4.537616039429941e-18
5.773307426504425e-18
7.275532735798607e-18
9.137366189880618e-18
1.1488658043590104e-17
1.4484673249361515e-17
1.8282709734881032e-17
2.3009866192264416e-17
2.8730688148630606e-17
3.543061031956917e-17
4.3040199229988094e-17
5.1537439880700134e-17
6.118461266285824e-17
7.299302858437598e-17
8.958876649691123e-17
1.1683823028506962e-16
1.670361320129893e-16
2.655326676243287e-16
4.652951923621337e-16
8.803084714453288e-16
1.764411967462514e-15
3.700480867719707e-15
8.057697178038054e-15
1.8097272974327502e-14
4.163360331616972e-14
9.738386785561649e-14
2.2994265441399427e-13
5.446032635316014e-13
1.287036927192367e-12
3.0223984771526786e-12
7.030210007509734e-12
1.6157077627193397e-11
3.66177468741685e-11
8.171101818837992e-11
1.7929904801763038e-10
3.8647478037782266e-10
8.175503078405197e-10
1.695953774775412e-09
3.4476013854180317e-09
6.863643904139126e-09
1.3374776809876858e-08
2.5497396931002503e-08
4.753204378798567e-08
8.661235458488845e-08
1.5420994617356202e-07
2.6818449209851507e-07
4.5541218350976455e-07
7.549121171077079e-07
1.2212062117238793e-06
1.927395260873963e-06
2.9671376818925895e-06
4.454438217331304e-06
6.519986787187927e-06
9.302852891002935e-06
1.2936754546922798e-05
1.7530950715926232e-05
2.314702163245507e-05
2.977423345702701e-05
3.730751948444781e-05
4.5532939785468166e-05
5.4125399354952876e-05
6.266214949054431e-05
7.0653181993057e-05
7.758641319218763e-05
8.298222301563764e-05
8.644930589052858e-05
8.773267363638842e-05
8.674546875238018e-05
8.357894446656787e-05
7.84889698983024e-05
7.186177691495855e-05
6.416533480905321e-05
5.5894884806386034e-05
4.752139609182718e-05
3.9450149624058975e-05
3.199388314234317e-05
2.5361734126574676e-05
1.9662367051702918e-05
1.4917710951128167e-05
1.1082881922823636e-05
8.068031735792696e-06
5.758746296170898e-06
4.03283606739406e-06
2.7725726159500773e-06
1.872399080039137e-06
1.2427745590271507e-06
8.111085802974089e-07
5.207745802550615e-07
3.290582704746399e-07
2.04688562093202e-07
1.2538240355714988e-07
7.5649796852188e-08
4.496732821550754e-08
2.6337910079053878e-08
1.520290064830841e-08
8.649476714100098e-09
4.850891954211809e-09
2.682043628851086e-09
1.4620464636058104e-09
7.858526128643886e-10
4.1651826300257244e-10
2.1770245111045362e-10
1.1221397178655002e-10
5.7042354952831266e-11
2.859708610771836e-11
1.4139082359701285e-11
6.894321087359813e-12
3.3152989959458235e-12
1.5721651818958962e-12
7.351774555502969e-13
3.389749710328199e-13
1.540912637435899e-13
6.905201829994477e-14
3.05017027046712e-14
1.3279389832693527e-14
5.6969485504577246e-15
2.407243087786474e-15
1.0013068842909115e-15
4.0991405239690963e-16
1.6523746550149417e-16
6.562057140566825e-17
2.5643203883369797e-17
9.824714192554926e-18
3.6781014237664964e-18
1.348273848936722e-18
4.880822562385534e-19
1.7532160421640708e-19
6.149694504763135e-20
2.0398958889681508e-20
6.447833010869798e-21
2.0979960246131527e-21
6.382597885484981e-22
1.316226091004457e-22
8.500178098551261e-23
1.1415870818982809e-22
1.1343616172535465e-22
2.7060971900411055e-22
7.314000043251436e-22
1.7663484240564032e-21
4.3093570147596194e-21
1.0615461072775829e-20
6.50843211162841e-21
1.648626287269214e-20
4.178829256676461e-20
1.0558756346305848e-19
2.665228983593105e-19
6.721205530750168e-19
1.692098299702713e-18
4.251427067781335e-18
1.0657640255575933e-17
2.664630094274261e-17
6.641607264268742e-17
1.6495501075035338e-16
4.0802433435256226e-16
1.004572337577978e-15
2.4602086378071083e-15
5.988999084713442e-15
1.44810612562481e-14
3.475050747844298e-14
8.269302808436757e-14
1.9495803202193148e-13
4.5497163117661e-13
1.0500201708404077e-12
2.3942888694223692e-12
5.38909434713162e-12
1.1962223195033169e-11
2.616164395342331e-11
5.6322260820911105e-11
1.1925243612641097e-10
2.4810876058719524e-10
5.067864698888122e-10
1.0154079528872095e-09
1.9939605931552324e-09
3.8342751049308995e-09
7.213942207996762e-09
1.3268393145184496e-08
2.3837237068331107e-08
4.179499480472266e-08
7.146073928850879e-08
1.1905226236456476e-07
1.9310699796141813e-07
3.0473807995935585e-07
4.6754178563609356e-07
6.969436196540581e-07
1.0087921411995404e-06
1.4171079200076041e-06
1.931079954926205e-06
2.551654373252631e-06
3.2683241035685548e-06
4.05691648814757e-06
4.879194221442233e-06
5.68486868727839e-06
6.416174764037846e-06
7.014558246735572e-06
7.428438852935269e-06
7.620616830531602e-06
7.57383394915751e-06
7.293327724700267e-06
6.805856672352373e-06
6.155448389272174e-06
5.39681366856032e-06
4.587793615823668e-06
3.782269978672641e-06
3.0246932072430587e-06
2.346884423477259e-06
1.7672079149898627e-06
1.2917397349443289e-06
9.167710015145638e-07
6.319065942961621e-07
4.2311546691512525e-07
2.7528740077155645e-07
1.740770902501614e-07
1.0701125958207128e-07
6.396644499653727e-08
3.718856278753509e-08
2.1032878982542375e-08
1.1574962880016376e-08
6.199848572518919e-09
3.2330694976683157e-09
1.6420716895577071e-09
8.126974366520094e-10
3.9215598467268233e-10
1.8455068128978135e-10
8.465522230082636e-11
3.7750789047652236e-11
1.6258210279432052e-11
6.6750457046707604e-12
2.5559569979261954e-12
8.859801260038594e-13
2.7699804453826805e-13
1.008507075280928e-13
8.251263215497504e-14
1.1045794085261413e-13
1.4713827496599442e-13
1.8589222606699716e-13
2.302768099477552e-13
2.8477305109352136e-13
3.5132456993140715e-13
4.286904126549166e-13
5.129677344578273e-13
5.98479907506133e-13
6.787107796525611e-13
7.471879784426057e-13
7.982754380771798e-13
8.278232272370714e-13
8.336085147848715e-13
8.155142886200571e-13
7.754308862153063e-13
7.169130283326022e-13
6.446643396590406e-13
5.639417682651426e-13
4.799720715682363e-13
3.97456091182269e-13
3.2021091133974876e-13
2.5097181822270117e-13
1.9135014782289387e-13
1.4192271153427617e-13
1.0241521621678191e-13
7.193657528795074e-14
4.922285208046041e-14
3.285736507005345e-14
2.1444931344397048e-14
1.3730640452649831e-14
8.664470280287115e-15
5.420792876672172e-15
3.3857370109141894e-15
2.125824125092874e-15
1.3492754300352358e-15
8.681242985915901e-16
5.658419544201791e-16
3.7232367399699825e-16
2.4611549036687097e-16
1.626917684205143e-16
1.0723205900620815e-16