# vtk DataFile Version 4.1 
COMMENT
ASCII
DATASET STRUCTURED_POINTS 
DIMENSIONS 300 300 1 
ORIGIN 0 0 0
SPACING 0.020943951023931952 0.020943951023931952 0 
POINT_DATA 90000
SCALARS U double 1
LOOKUP_TABLE default
2.2904814941614516e-27
7.8466895435103085e-28
2.415304801519413e-28
4.505891125018463e-29
8.514057770791866e-29
3.491023868728033e-28
9.244939290100362e-28
2.23307192303045e-27
5.462656035723156e-27
1.340122721391712e-26
3.239775320951152e-26
7.724508503879033e-26
1.8302309139379475e-25
4.326470641351649e-25
1.0195075818482932e-24
2.3890524272408564e-24
5.558812473591815e-24
1.2839836563320252e-23
2.945093882340048e-23
6.709465772576402e-23
1.5180227278918617e-22
3.4098976492661693e-22
7.602229406845065e-22
1.6817744936018254e-21
3.690931961329558e-21
8.034676810192706e-21
1.7345426703116423e-20
3.712795972008112e-20
7.878247260509578e-20
1.6568527398830623e-19
3.452862386492477e-19
7.129071680506538e-19
1.4580215163345194e-18
2.9531953657798014e-18
5.922959360315681e-18
1.176049637509636e-17
2.311404055600204e-17
4.4958665518323925e-17
8.652931243709988e-17
1.6475980551632812e-16
3.1031598452223267e-16
5.780285178716179e-16
1.0646690040443816e-15
1.938780592813187e-15
3.4899588092486962e-15
6.208957489134145e-15
1.0915739452646814e-14
1.8960646062520688e-14
3.2534785910089974e-14
5.514000672240551e-14
9.228659395430924e-14
1.5250773082137587e-13
2.4880236955859315e-13
4.006396294743371e-13
6.366732520169629e-13
9.983165987161603e-13
1.5443070338354914e-12
2.3563306981687117e-12
3.5456707141417194e-12
5.260670716351297e-12
7.69456270788735e-12
1.1092894437609302e-11
1.575942285557964e-11
2.205895383691946e-11
3.041526653257751e-11
4.13020511806184e-11
5.522481946423534e-11
7.269212972111237e-11
9.417530143028065e-11
1.2005712248728112e-10
1.5057184502005383e-10
1.8574087541828597e-10
2.253107192543569e-10
2.6870155203977646e-10
3.1497578910533116e-10
3.6283576611329625e-10
4.1065777596354885e-10
4.565661337640745e-10
4.9854588901899e-10
5.345868809453945e-10
5.62845982081963e-10
5.818097340055462e-10
5.904372493110344e-10
5.882640328033218e-10
5.754515084721315e-10
5.527740805780832e-10
5.215443863196668e-10
4.83486418918393e-10
4.4057368915220114e-10
3.9485410216342575e-10
3.482839360629151e-10
3.025902276421681e-10
2.5917481510463715e-10
2.1906565519158814e-10
1.8291343233971779e-10
1.5102533735171315e-10
1.2342414448529447e-10
9.991964699632277e-11
8.018080093175072e-11
6.37998273866704e-11
5.034311539975906e-11
3.93872072548668e-11
3.054083935081279e-11
2.3455677353091568e-11
1.782903878885079e-11
1.3401757181954328e-11
9.953717769080172e-12
7.298786566191966e-12
5.280090810016144e-12
3.7660213675577625e-12
2.64695851360904e-12
1.832549340822725e-12
1.2493326606735555e-12
8.385535168049999e-13
5.540826977765126e-13
3.6042303917247613e-13
2.3082774274127586e-13
1.455738037434063e-13
9.043122230396639e-14
5.535423033648342e-14
3.3402107388615356e-14
1.9879945699568373e-14
1.1677052681145373e-14
6.77347116885739e-15
3.882826034736884e-15
2.201116622955318e-15
1.2347485250012747e-15
6.857935649982099e-16
3.772716722189941e-16
2.055990213029949e-16
1.1097161237336495e-16
5.928791838945857e-17
3.1319091539620236e-17
1.633111695431951e-17
8.386342645398113e-18
4.227940401677213e-18
2.084166336053829e-18
9.993913981101353e-19
4.630890313881562e-19
2.0561547675932078e-19
8.656556688955718e-20
3.41516746551962e-20
1.253516941169398e-20
4.383871259034622e-21
1.671307161721122e-21
9.023945257818594e-22
6.913790204123928e-22
5.71383950680341e-22
4.353627862745524e-22
2.9107124871094786e-22
1.6537733635495858e-22
7.483566855193624e-23
2.236991260356515e-23
1.9164245351551575e-24
3.732946351809052e-24
1.8096593568477783e-23
3.7194900954585196e-23
5.569398806011684e-23
7.054697531017192e-23
8.047548953925276e-23
8.539284025078302e-23
8.590457576777968e-23
8.293458411654769e-23
7.747617515264605e-23
7.0445797546186e-23
6.261134350333979e-23
5.456944741128026e-23
4.675176962629576e-23
3.944618262039433e-23
3.2823756961655144e-23
2.696610957502565e-23
2.1890145538396468e-23
1.7568806216116355e-23
1.394743820310849e-23
1.095603105288495e-23
8.517942161898917e-24
6.555876371923585e-24
4.995851803909846e-24
3.7697263792024356e-24
2.8166689515803174e-24
2.083812799976208e-24
1.5262625492784248e-24
1.1066225414955342e-24
7.942296529195484e-25
5.642655284929556e-25
3.968797469462996e-25
2.763931144166505e-25
1.9059648263314723e-25
1.3013288132105779e-25
8.794866311330543e-26
5.880939890175407e-26
3.888440029469747e-26
2.540379103074055e-26
1.6386148623528508e-26
1.0428395802631136e-26
6.546595186720119e-27
4.0568198570936374e-27
2.4873999493720262e-27
1.5157057510318614e-27
9.236093856176771e-28
5.663446727546125e-28
3.5037803217071483e-28
2.1733971388355453e-28
1.3252060480023054e-28
7.702410809804924e-29
4.2108535109929513e-29
2.3784617037961253e-29
1.7314483320085291e-29
1.4828306453739497e-29
1.0852778073660935e-29
1.6052406730593412e-29
7.375492886691736e-29
2.846391958028405e-28
8.936173224117374e-28
2.5975845010871105e-27
7.448241257752744e-27
2.1266004572556386e-26
5.994119398546054e-26
1.6571763627152752e-25
4.4845285434589275e-25
1.18742123067706e-24
3.075810214582225e-24
7.79310338216531e-24
1.9311806737205514e-23
4.680480175790602e-23
1.109440101576566e-22
2.5717778527761406e-22
5.829458598317443e-22
1.291884199413552e-21
2.7986512261329854e-21
5.9255880582440094e-21
1.2260261335703084e-20
2.478463657538507e-20
4.894511059903951e-20
9.44080549700369e-20
1.7783194279789486e-19
3.270679239379744e-19
5.872435517802365e-19
1.0291376118825367e-18
1.760047703407485e-18
2.936907882709071e-18
4.780666838839088e-18
7.589874244066006e-18
1.1750128863259979e-17
1.7734744874006408e-17
2.6091085557155646e-17
3.740702398719549e-17
5.225347707193561e-17
7.110232716611837e-17
9.422431031725646e-17
1.2157802115190264e-16
1.527077661086346e-16
1.866727132804595e-16
2.2203058291437473e-16
2.5689440016893685e-16
2.8907015889397244e-16
3.1626788527169217e-16
3.3636156734961907e-16
3.4765897131713655e-16
3.491348310497513e-16
3.4058330813354736e-16
3.2265852619404996e-16
2.967929515343262e-16
2.65007493623877e-16
2.2964837527216795e-16
1.9309873582228623e-16
1.575146048281002e-16
1.2462555744612812e-16
9.562326919734103e-17
7.11413402876152e-17
5.131230463466463e-17
3.587641694119188e-17
2.431310661162486e-17
1.5969119187528727e-17
1.0164968464737836e-17
6.2704973017558e-18
3.748578557510982e-18
2.1717499161260406e-18
1.2194221161775984e-18
6.636436445758833e-19
3.501075254655144e-19
1.7906733985437796e-19
8.880890214048328e-20
4.2718171994942803e-20
1.9933784484021034e-20
9.026234834609308e-21
3.9673059125492295e-21
1.6931781115642527e-21
7.019165464449768e-22
2.8275707533960355e-22
1.1073009613072568e-22
4.217241777670527e-23
1.5627833843024586e-23
5.637545291875731e-24
1.980761745312746e-24
6.780950943575978e-25
2.2609777375182775e-25
7.328800522152338e-26
2.307166709913499e-26
7.1498422505724e-27
1.7043736855659155e-27
5.020417266233843e-28
1.1474007545505535e-28
1.2489599837382833e-29
1.899581168422744e-29
5.971471379254414e-29
1.205579246310604e-28
2.694541110196583e-28
6.963170176987704e-28
1.799917969478127e-27
4.448352788779286e-27
1.0727178241316981e-26
2.5853511441700023e-26
6.266850065563341e-26
1.5188033302552685e-25
3.6554809380058386e-25
8.716716161892333e-25
2.0611178490811596e-24
4.8397751535407646e-24
1.1292170940328154e-23
2.6172265053074985e-23
6.022368800379198e-23
1.375168954816289e-22
3.1152734921180065e-22
7.000439801702371e-22
1.5602152959318597e-21
3.448254966410629e-21
7.555828699367174e-21
1.6411223960164148e-20
3.53253635999888e-20
7.534145031759766e-20
1.591846032859827e-19
3.3312539705626507e-19
6.903587138046485e-19
1.4165235600632536e-18
2.87724711844664e-18
5.784401238637253e-18
1.1507796964985647e-17
2.2651879283718806e-17
4.4108395740151835e-17
8.495145468123433e-17
1.6180099659116383e-16
3.047061842548894e-16
5.672838721947989e-16
1.0439230142488167e-15
1.8985210771638626e-15
3.411705148880213e-15
6.0571301572547134e-15
1.0622623756573503e-14
1.8399078576084824e-14
3.146945878207858e-14
5.314231282875813e-14
8.858864027610563e-14
1.4575709242587558e-13
2.3665855456741664e-13
3.791240294741492e-13
5.991445023092627e-13
9.33891169329917e-13
1.4354801525751418e-12
2.175477370260994e-12
3.2500264714801446e-12
4.7853181197280134e-12
6.9429009408704035e-12
9.924072075294635e-12
1.3972302402439487e-11
1.9372390662558255e-11
2.644486415640986e-11
3.553413023615108e-11
4.698911834479267e-11
6.113571358176531e-11
7.824121413938798e-11
9.847233218501361e-11
1.2184980316518284e-10
1.4820427618083182e-10
1.771395380201513e-10
2.0800992228754435e-10
2.399186167535496e-10
2.7174223351087846e-10
3.021843538129296e-10
3.2985696990299574e-10
3.533842869729582e-10
3.7151895571912965e-10
3.832573710753409e-10
3.879390560911279e-10
3.8531595998000727e-10
3.755808942277994e-10
3.593499079316521e-10
3.3760022725519443e-10
3.115721617497858e-10
2.8264875717378545e-10
2.522298656148667e-10
2.2161717128302988e-10
1.9192369797724573e-10
1.640162075940446e-10
1.3849286742538255e-10
1.1569290222786174e-10
9.57307156076525e-11
7.854477079190366e-11
6.395143341042531e-11
5.1695600907806876e-11
4.149258807605862e-11
3.3058650225114143e-11
2.6130072115571543e-11
2.047254028119249e-11
1.5883426335180015e-11
1.2189739702684567e-11
9.244094478323821e-12
6.920349930602577e-12
5.109864312789932e-12
3.718705930789482e-12
2.6657664442990056e-12
1.881520920376621e-12
1.307134949064962e-12
8.936719023283178e-13
6.012473487047386e-13
3.9807169823269874e-13
2.593932486350183e-13
1.6639434401599496e-13
1.0510622630693288e-13
6.540143121610293e-14
4.0105362628168577e-14
2.4248580027771205e-14
1.4463413946627406e-14
8.515307443332149e-15
4.951325265570555e-15
2.844914872074829e-15
1.616030739992496e-15
9.078563685916547e-16
5.044864400922709e-16
2.7727969036947937e-16
1.5068013029659806e-16
8.089539576716847e-17
4.2852079967178133e-17
2.2356171649002195e-17
1.1457506702192724e-17
5.748535784519755e-18
2.8106756117586675e-18
1.3310272855873334e-18
6.054048623084561e-19
2.613649691856721e-19
1.0524433389817012e-19
3.8464492488247476e-20
1.2203727669814528e-20
3.1440623770697397e-21
6.898648113025241e-22
3.6342353046841866e-22
4.810613879956001e-22
5.399538271143421e-22
4.750031122288844e-22
3.4292807679660426e-22
2.0560418104020112e-22
9.913438157226578e-23
3.485186487045079e-23
8.685119278048684e-24
9.922981688572406e-24
2.696814027943579e-23
5.0236468988804696e-23
7.309213135682422e-23
9.16927966487075e-23
1.043735949018647e-22
1.1094293979566218e-22
1.1207159399774499e-22
1.0883648387924476e-22
1.0241730876517405e-22
9.391733486066942e-23
8.427378075068468e-23
7.422695496824762e-23
6.432437269922915e-23
5.494319896191227e-23
4.632021231421346e-23
3.85827710698586e-23
3.177718576905673e-23
2.5892800625601575e-23
2.0881285694311667e-23
1.6671373240559642e-23
1.3179675561269509e-23
1.0318377166085915e-23
8.000564354126357e-24
6.143811371654916e-24
4.67246440654892e-24
3.5189199123680554e-24
2.62411424678152e-24
1.937418315751553e-24
1.4161292132655131e-24
1.0247369731724959e-24
7.341055681447447e-25
5.2065349655935e-25
3.6557130671046176e-25
2.5408588198816417e-25
1.7477488161723467e-25
1.1893930407041017e-25
8.004617591490391e-26
5.325117805271037e-26
3.500385968203143e-26
2.2730446350532717e-26
1.458453134318834e-26
9.254669463601271e-27
5.818597207343036e-27
3.634879258366135e-27
2.2636188006928764e-27
1.4087630031887993e-27
8.759140608401018e-28
5.413195699712898e-28
3.2918949419120767e-28
1.9508444235698451e-28
1.1321306616875378e-28
6.638020437559623e-29
3.9640251176449396e-29
2.0322432185470003e-29
4.334347714621202e-30
1.996208477824044e-30
3.51915652302439e-29
1.3267244424285646e-28
3.6075976552656537e-28
9.59696732644909e-28
2.7082641176947015e-27
7.824796895055405e-27
2.2297555390722816e-26
6.201783622116129e-26
1.685001875737286e-25
4.4776320935436045e-25
1.1637562938262565e-24
2.9575786450298744e-24
7.34982246116371e-24
1.7862738773521857e-23
4.246059643634238e-23
9.871259294905224e-23
2.2441388481898236e-22
4.988183953407383e-22
1.0838572600093622e-21
2.3017714761714555e-21
4.77683278555628e-21
9.685807705405589e-21
1.918586722995246e-20
3.712006131001553e-20
7.013718391197877e-20
1.2939850267428924e-19
2.3306565026289437e-19
4.0975110338444565e-19
7.030361957028376e-19
1.1769881014523895e-18
1.9223075297213414e-18
3.0623029748140136e-18
4.757344101925608e-18
7.205883676882226e-18
1.0639711642052864e-17
1.5311034775252605e-17
2.1469500706184268e-17
2.9328593805899634e-17
3.902296044203685e-17
5.056096445048541e-17
6.377962507799829e-17
7.831128299334561e-17
9.357200001146609e-17
1.0878009801160358e-16
1.230091039349499e-16
1.3527310239473895e-16
1.446352726862888e-16
1.5032393587054033e-16
1.518366229440455e-16
1.4901290605674022e-16
1.4206144916553896e-16
1.315351194498489e-16
1.1825813640120157e-16
1.0321860621678511e-16
8.744603947574696e-17
7.189511181851074e-17
5.735383773569935e-17
4.43876305173064e-17
3.332242147971717e-17
2.4262300768489565e-17
1.7131746037589905e-17
1.1730247903368681e-17
7.78788186314872e-18
5.013239069235361e-18
3.128923072913766e-18
1.8934335131580317e-18
1.1109551420567066e-18
6.32060462246066e-19
3.487167941159368e-19
1.8658994393935345e-19
9.684260559991666e-20
4.8762074122493096e-20
2.3824453048353163e-20
1.1297678439936678e-20
5.2010871819103705e-21
2.32521564255773e-21
1.0097962856319375e-21
4.261414900640881e-22
1.7481622617929404e-22
6.974043496291674e-23
2.706678706180749e-23
1.0223987353784324e-23
3.760290976445853e-24
1.3471545898457118e-24
4.702466238288858e-25
1.5994606894857224e-25
5.30160879619553e-26
1.7155595383620367e-26
5.4510047424342866e-27
1.2623234518187488e-27
3.7586597219662327e-28
1.0382500873010334e-28
3.1510456314607084e-29
1.7745542260719967e-29
1.4179592449979616e-29
1.2228124835023965e-29
2.6390799755877924e-29
8.742911789037525e-29
2.448362864198909e-28
5.99800138362173e-28
1.4241962753942688e-27
3.4745007901167525e-27
8.708083771541552e-27
2.186841556064413e-26
5.416919880171626e-26
1.3219417187888222e-25
3.194476203994839e-25
7.674684858050818e-25
1.834616512752522e-24
4.358760890195719e-24
1.02791302074289e-23
2.404562126034218e-23
5.578836548500007e-23
1.2837768392162494e-22
2.9298877915290683e-22
6.630612009157081e-22
1.4876332141428313e-21
3.3080694906235346e-21
7.289480183100743e-21
1.591393309537618e-20
3.441422483620351e-20
7.370545051014947e-20
1.5630900017183576e-19
3.281806567257424e-19
6.8203913767977105e-19
1.4028037362253385e-18
2.854967581596551e-18
5.748422812376783e-18
1.1448989473890287e-17
2.255200166783164e-17
4.3927027230679015e-17
8.459354305621012e-17
1.6103923676966186e-16
3.0300239996815122e-16
5.633928910223263e-16
1.0350439056213901e-15
1.878535815384463e-15
3.367631164195635e-15
5.962173940092717e-15
1.042293821772095e-14
1.7989157585906767e-14
3.0647542037381614e-14
5.153149944965082e-14
8.550063460397011e-14
1.399623625633466e-13
2.2600765969311602e-13
3.599383435728968e-13
5.652590927948203e-13
8.751874399022582e-13
1.3356917690399805e-12
2.0089932322558326e-12
2.9773561638347484e-12
4.3468405969708525e-12
6.250504536188358e-12
8.850338000872238e-12
1.2337014523390913e-11
1.6926402908344034e-11
2.2851750301596213e-11
3.035059196161734e-11
3.96458241259121e-11
5.0921032959433194e-11
6.429110131548782e-11
7.977024984493428e-11
9.724086760268662e-11
1.1642753202383924e-10
1.3688123768035668e-10
1.5797876914148455e-10
1.789411480473554e-10
1.9887307974997654e-10
2.168224493347389e-10
2.3185553939616557e-10
2.431403466169368e-10
2.5002786595633185e-10
2.521201615569066e-10
2.493149078855102e-10
2.418189432312816e-10
2.3012785363094368e-10
2.1497390148996612e-10
1.97249674214837e-10
1.7791859287460865e-10
1.5792509585794815e-10
1.3811658351434024e-10
1.191863234820253e-10
1.016422046811506e-10
8.580149963067903e-11
7.180766194973667e-11
5.966241058782481e-11
4.926528650340674e-11
4.045342392927767e-11
3.3036023170262645e-11
2.6820333837314304e-11
2.1628251996255547e-11
1.7304447988926924e-11
1.3718042432123394e-11
1.076022455667633e-11
8.340009489258867e-12
6.379787915820552e-12
4.81166233049769e-12
3.574965572294524e-12
2.6149206607142018e-12
1.8821548575677235e-12
1.3327017395191385e-12
9.281619387769878e-13
6.357900885080028e-13
4.2838603407610996e-13
2.8396238351057485e-13
1.8522408704534306e-13
1.1892759929693203e-13
7.51934121741458e-14
4.683537634677458e-14
2.87519465889787e-14
1.7404925365567146e-14
1.039451621728463e-14
6.127338094862139e-15
3.566669535887018e-15
2.050827383942955e-15
1.1651094836965042e-15
6.540243646442283e-16
3.62681443456449e-16
1.9858371140231823e-16
1.07267340089478e-16
5.708406056360179e-17
2.9871524965045495e-17
1.533065542552297e-17
7.689500194175182e-18
3.7516095828946904e-18
1.7689876840621736e-18
7.989249814320638e-19
3.410607029753608e-19
1.3481943440280367e-19
4.7633609434124005e-20
1.4025731805205475e-20
2.8837937895753937e-21
1.8711626893502192e-22
8.752153201515778e-23
4.357725302420389e-22
6.239976530798381e-22
6.016058057194614e-22
4.634049974403972e-22
3.016590745000104e-22
1.697542854810555e-22
8.616585773466126e-23
4.8081929256376623e-23
4.3429187566707394e-23
5.855562220862083e-23
8.203935796564772e-23
1.0591879311973045e-22
1.255313786135126e-22
1.3878146239488631e-22
1.453071008802157e-22
1.457647786694523e-22
1.4130063764019487e-22
1.332011165793702e-22
1.2268653662572155e-22
1.1080634929233794e-22
9.840056241808346e-23
8.610063503982728e-23
7.435137047050827e-23
6.344184224550437e-23
5.353807277609524e-23
4.471337740833316e-23
3.6974388007604443e-23
3.028211510188881e-23
2.456823088576802e-23
1.9747206727107263e-23
1.5725116099276895e-23
1.2405895645455163e-23
9.695721472625266e-24
7.505982355979985e-24
5.755179194574624e-24
4.369983321363454e-24
3.2856429596576385e-24
2.445911794511492e-24
1.802658066068559e-24
1.3152826482669293e-24
9.500342540648326e-25
6.79272991115753e-25
4.807111170708582e-25
3.3665323835910955e-25
2.3326007962678893e-25
1.5986127124007254e-25
1.0833851034491848e-25
7.259171302247844e-26
4.809114688907874e-26
3.1511235604760894e-26
2.043769007719505e-26
1.3137973213466296e-26
8.384631314151704e-27
5.321156647339676e-27
3.3608397545086084e-27
2.110597286145371e-27
1.313646147434693e-27
8.064865451545117e-28
4.866970159315589e-28
2.8906930415077047e-28
1.6924495795950781e-28
9.546755363850509e-29
4.7941117661492807e-29
2.0693865333423416e-29
1.7472160847620313e-29
3.9275639935416787e-29
7.741019734499182e-29
1.3766486551555968e-28
3.1389070116263607e-28
9.257195689828834e-28
2.8145171916495584e-27
8.161502618075522e-27
2.2780424483152004e-26
6.206086615869014e-26
1.655501939086538e-25
4.318557655560731e-25
1.1008137515424814e-24
2.7428465391941082e-24
6.6840069810158e-24
1.5933882603749107e-23
3.715580614585267e-23
8.473515044569864e-23
1.8894406298207244e-22
4.1185457398805086e-22
8.774332059172815e-22
1.826715695291881e-21
3.715759995500185e-21
7.383801416403326e-21
1.4331905202495242e-20
2.716774222205088e-20
5.0287543669518586e-20
9.087688734846127e-20
1.6030946014815585e-19
2.7599559689235283e-19
4.636662465192721e-19
7.599601735926765e-19
1.2150067270473432e-18
1.894472450950163e-18
2.8802997237844832e-18
4.269171056584509e-18
6.167672163989974e-18
8.683301526354939e-18
1.1910968818647596e-17
1.5915468100039474e-17
2.071153541960694e-17
2.6244312888205815e-17
3.237403606112042e-17
3.8869173333025953e-17
4.541175215120392e-17
5.161705103622273e-17
5.706733776669285e-17
6.1356327590682e-17
6.413821403076887e-17
6.517327140330517e-17
6.436178193536789e-17
6.175966801158657e-17
5.757247184935478e-17
5.212849520818186e-17
4.583597192335581e-17
3.9132080290545424e-17
3.2432710906005236e-17
2.6091007979008017e-17
2.0370172297689828e-17
1.5432625462198508e-17
1.1344305927816019e-17
8.090364459732266e-18
5.597282725232126e-18
3.75647816194648e-18
2.4454765216490115e-18
1.5442559506847452e-18
9.45915817957179e-19
5.620538664367483e-19
3.2398241581244545e-19
1.8118410617536337e-19
9.831564361248326e-20
5.1771356637663756e-20
2.6460207864026567e-20
1.3128591771774753e-20
6.324998206540072e-21
2.9595646536416236e-21
1.3453632121632394e-21
5.943265170560446e-22
2.552256154734219e-22
1.0658222645686748e-22
4.3297593118803627e-23
1.711680070874306e-23
6.587669071053214e-24
2.469220653647519e-24
9.017228023029183e-25
3.2093930310324428e-25
1.113702425313903e-25
3.77024715009407e-26
1.2463736485641059e-26
4.025228294162734e-27
9.412957771535862e-28
2.9579531149920756e-28
9.301039915302713e-29
3.1683612824047054e-29
1.2303898462261775e-29
4.0569181437899166e-30
2.6263072081966156e-31
2.2878534279372394e-30
1.3369231907306922e-29
3.660800977783532e-29
7.936533186771933e-29
1.7440129430650675e-28
4.3422736892163835e-28
1.1611248784113074e-27
3.06987059968124e-27
7.820849208075817e-27
1.9409130840014735e-26
4.7726611088660733e-26
1.1725705368522303e-25
2.876008672724883e-25
7.014151632357155e-25
1.6963147617479633e-24
4.065421503805205e-24
9.659460937708583e-24
2.2763382919520973e-23
5.320838353364547e-23
1.2333230714909835e-22
2.833892526219378e-22
6.453198281743425e-22
1.4559836358226954e-21
3.2542432439037694e-21
7.204138403725004e-21
1.5793451273260128e-20
3.428127836180235e-20
7.366197724308613e-20
1.5666020034033894e-19
3.2970633652573254e-19
6.865551177617729e-19
1.4142647044821225e-18
2.8815223987886007e-18
5.806026413002708e-18
1.1567304002858157e-17
2.2783081012977824e-17
4.4355905920578174e-17
8.534558759362694e-17
1.622682309151736e-16
3.0481830809507515e-16
5.656346256381794e-16
1.0366935629568465e-15
1.8763594108536987e-15
3.3532358970706668e-15
5.9159597487300144e-15
1.030217921160557e-14
1.7705351495418916e-14
3.002473565788727e-14
5.02318665051669e-14
8.289526282442525e-14
1.3491290061123006e-13
2.1650694245140987e-13
3.425341529232276e-13
5.341539855810145e-13
8.20869152044017e-13
1.2429048112983164e-12
1.853817274779367e-12
2.7231186833007113e-12
3.938572653120605e-12
5.607667112385185e-12
7.857624226917405e-12
1.0833194792380056e-11
1.4691448001164013e-11
1.959285616806233e-11
2.568823532489941e-11
3.310156953633359e-11
4.1909421468290606e-11
5.211846880205868e-11
6.36436006912661e-11
7.6289795176213e-11
8.974146716542932e-11
1.0356290878936928e-10
1.1721266775170834e-10
1.3007316361442438e-10
1.4149463264636072e-10
1.5084991869653673e-10
1.575941617996813e-10
1.6132163984831786e-10
1.6181141364711646e-10
1.5905434275011821e-10
1.5325649120629106e-10
1.4481756732138223e-10
1.342871516125399e-10
1.2230519800089873e-10
1.0953582301328906e-10
9.660416916590621e-11
8.404500481006664e-11
7.226902315003305e-11
6.154920837400067e-11
5.2025992104245333e-11
4.3727006893496623e-11
3.659557250787175e-11
3.0521780888519314e-11
2.537098351348318e-11
2.1006194276405158e-11
1.7302877362486785e-11
1.4156328176846654e-11
1.14830720905135e-11
9.218292241722392e-12
7.31131623742849e-12
5.720812919882356e-12
4.410780636686938e-12
3.3478297443672128e-12
2.499797373296494e-12
1.8354370086469047e-12
1.3247976528728066e-12
9.399098567122832e-13
6.554774327141275e-13
4.493858963798207e-13
3.0294595455173805e-13
2.0087249765316482e-13
1.3104995040263562e-13
8.415625523256616e-14
5.321777522425483e-14
3.31547211280387e-14
2.0358861603419022e-14
1.2327579541627284e-14
7.363785476285601e-15
4.3409062463178155e-15
2.5259956565042177e-15
1.4511687381696911e-15
8.230392507133091e-16
4.607091654567974e-16
2.5439039729641655e-16
1.3843803964729047e-16
7.415161277835444e-17
3.9021207616127544e-17
2.0124274509540642e-17
1.0137840770366208e-17
4.966685653087395e-18
2.352401039845938e-18
1.0684005133374416e-18
4.599129271059668e-19
1.8440333703963551e-19
6.699101281798134e-20
2.1051223407114868e-20
5.310185816332754e-21
1.0998051958920835e-21
5.81171322295713e-22
8.28412640092446e-22
9.732484613644287e-22
9.016523461593756e-22
7.0696958525591915e-22
4.915306401121882e-22
3.1552700398289505e-22
1.99264201217182e-22
1.3862659645105847e-22
1.1905578969729517e-22
1.244321877138226e-22
1.413866254250193e-22
1.6061124760915905e-22
1.7659333365375175e-22
1.8673505467789898e-22
1.9039336158627268e-22
1.8807598373318538e-22
1.8085753635041335e-22
1.6999798666279095e-22
1.5671755579057028e-22
1.420805773127031e-22
1.269495148609709e-22
1.1198090769139886e-22
9.764408523841438e-23
8.425026412528595e-23
7.198436981353921e-23
6.093513563505137e-23
5.1121192397097614e-23
4.251229924096013e-23
3.504578550773723e-23
2.863880116096019e-23
2.3197200631867123e-23
1.8621893205397347e-23
1.4813365143868352e-23
1.1674895340309081e-23
9.114813162730003e-24
7.048022373757465e-24
5.396945094673014e-24
4.092008054898404e-24
3.0717761925939094e-24
2.2828201901279365e-24
1.6793822790059753e-24
1.2228851699663318e-24
8.81318922929865e-25
6.285405802485271e-25
4.43526021222339e-25
3.0961581247072886e-25
2.1379296427698815e-25
1.460211162190788e-25
9.866015446456969e-26
6.596590527498799e-26
4.3672903756590904e-26
2.865422609813104e-26
1.8649341779655165e-26
1.2049463485528075e-26
7.729807329110895e-27
4.919281557597076e-27
3.0998348482990235e-27
1.9294078552862344e-27
1.1839563981610327e-27
7.1554182944144515e-28
4.247718382781007e-28
2.45666602437927e-28
1.3834054240587774e-28
8.188546837126375e-29
6.213294307725879e-29
5.931923434868394e-29
5.057541010759643e-29
3.5856631597462953e-29
7.338699397511446e-29
3.068292725913484e-28
1.0296273411816442e-27
2.9729480775584553e-27
8.203172065196056e-27
2.237289443920667e-26
6.003754338242096e-26
1.5730752900073678e-25
4.0196965067075147e-25
1.0035929114811943e-24
2.4516680684095898e-24
5.861870556691581e-24
1.371375743897303e-23
3.138012495968359e-23
7.020905881577146e-23
1.5355570313800775e-22
3.2823773941069755e-22
6.856316368831053e-22
1.3993040886379838e-21
2.7899409175910966e-21
5.4335207566088076e-21
1.033497377961418e-20
1.9196116183189774e-20
3.481159509234949e-20
6.16267030570158e-20
1.0648155685328753e-19
1.7954155484019342e-19
2.9536866298286694e-19
4.740187854764463e-19
7.419597450867667e-19
1.1325039457365902e-18
1.6853631513058118e-18
2.4448951639917593e-18
3.456665280002572e-18
4.762126682622071e-18
6.391550514603459e-18
8.355787657069197e-18
1.063794981496865e-17
1.3186537684711212e-17
1.5911769577690095e-17
1.8686734603982283e-17
2.1354430566166672e-17
2.374077384152302e-17
2.5672443645465913e-17
2.6997215277845806e-17
2.7603568668959604e-17
2.743611160613434e-17
2.650387633361203e-17
2.4879777197802628e-17
2.2691193489977292e-17
2.0103362097174783e-17
1.7298603010172588e-17
1.4455032546928247e-17
1.1728225927699168e-17
9.23837538213236e-18
7.064145140723826e-18
5.243019486183553e-18
3.776811223984978e-18
2.640357059328865e-18
1.7913204986189525e-18
1.1793573713900888e-18
7.534880028586911e-19
4.671677082366888e-19
2.810939608166413e-19
1.6414941808230913e-19
9.304086766988237e-20
5.119210026890755e-20
2.734551626978114e-20
1.4183827965136687e-20
7.145065806819302e-21
3.4963634941440515e-21
1.6623687885714586e-21
7.681603537907902e-22
3.450746023934637e-22
1.507447388346134e-22
6.405885915737693e-23
2.64893122930619e-23
1.066274103629469e-23
4.17955471070474e-24
1.5959475089036038e-24
5.93875398683733e-25
2.1544845718926565e-25
7.623722061319773e-26
2.633100262014797e-26
8.881510558767679e-27
2.926748984896866e-27
6.906701069627626e-28
2.255413442720202e-28
7.425350742409736e-29
2.5221501563045672e-29
8.718690636030848e-30
2.7088384421267936e-30
8.029208357916867e-31
1.2858156705143794e-30
3.482764402605731e-30
6.502143801319573e-30
9.743680824060103e-30
1.7406658195612178e-29
4.849864557303878e-29
1.5200236716966742e-28
4.315001099225583e-28
1.1122571043003331e-27
2.7527247057111084e-27
6.832431680985208e-27
1.720159546537752e-26
4.3496968167294615e-26
1.0919967642733408e-25
2.70937985567522e-25
6.648528090605851e-25
1.6169647354008707e-24
3.9022082945245825e-24
9.344571892173118e-24
2.2192344376829123e-23
5.2239572955733016e-23
1.2184191583065242e-22
2.815225316447643e-22
6.4430542472838205e-22
1.4603972383473625e-21
3.277764582314962e-21
7.283366456842537e-21
1.601966639081663e-20
3.4870917699088514e-20
7.510809379372443e-20
1.6004826099639388e-19
3.3735345168288827e-19
7.032659107667475e-19
1.4497235722585802e-18
2.9547022497398387e-18
5.953020536959381e-18
1.1854655660471466e-17
2.332929437008217e-17
4.5363737795203045e-17
8.714534930901321e-17
1.653641171688503e-16
3.099083677155308e-16
5.735260836827782e-16
1.0479322409847343e-15
1.89018781904435e-15
3.3651088131847784e-15
5.912147135158585e-15
1.0248767173710895e-14
1.7526900720764218e-14
2.9564524524824454e-14
4.9180419992956903e-14
8.066596326271341e-14
1.304319663451881e-13
2.0786898186646872e-13
3.264530635436595e-13
5.051119131300054e-13
7.698343622431944e-13
1.1554552454743724e-12
1.7074754522137909e-12
2.4836840800383815e-12
3.5552422635356085e-12
5.006779931309963e-12
6.9349697924950494e-12
9.445008345080661e-12
1.264448879042317e-11
1.6634332597177804e-11
2.1496782401407025e-11
2.728095352072778e-11
3.398706271546961e-11
4.155112214372708e-11
4.983247607113009e-11
5.860690329548023e-11
6.756793730561928e-11
7.633843435279645e-11
8.449320301172166e-11
9.15917905735879e-11
9.721855245357996e-11
1.0102529702038932e-10
1.0277055005548887e-10
1.0234922223152124e-10
9.980741751887452e-11
9.533924560818624e-11
8.926544747076496e-11
8.19968122977553e-11
7.398805179590557e-11
6.568938132626469e-11
5.7503172423272524e-11
4.975168869668202e-11
4.265946158196999e-11
3.635092255857557e-11
3.0861176601080076e-11
2.615585291516779e-11
2.2155121137944415e-11
1.8757223374050987e-11
1.585798868746503e-11
1.336435664912767e-11
1.1201509699558972e-11
9.314462771083374e-12
7.665701385473692e-12
6.230677491999908e-12
4.9927711009367786e-12
3.938874502556899e-12
3.0562278755983284e-12
2.330665278667215e-12
1.7460955497118454e-12
1.2848644891881135e-12
9.286025254343936e-13
6.592137967102765e-13
4.597620471756533e-13
3.151174914029083e-13
2.123216060220918e-13
1.406918115209659e-13
9.172384288511919e-14
5.886132086236336e-14
3.719732455055692e-14
2.3159258325095773e-14
1.421204047727007e-14
8.599558663069221e-15
5.13244085227052e-15
3.0220294171974837e-15
1.7556739098229239e-15
1.0063093109937453e-15
5.689107836667635e-16