# vtk DataFile Version 4.1 
COMMENT
ASCII
DATASET STRUCTURED_POINTS 
DIMENSIONS 300 300 1 
ORIGIN 0 0 0
SPACING 0.020943951023931952 0.020943951023931952 0 
POINT_DATA 90000
SCALARS U double 1
LOOKUP_TABLE default
5.038942536173255e-19
2.0167137725005119e-19
1.3515804699394209e-18
4.1259376525746276e-18
8.688985233277511e-18
1.7007584375429657e-17
3.425811424265438e-17
6.984246843337618e-17
1.4060036417454403e-16
2.804263497137651e-16
5.6324220945483e-16
1.156822512324437e-15
2.454810057433771e-15
5.40720242808852e-15
1.2341949559697586e-14
2.896808365581365e-14
6.913218571866367e-14
1.6575235847391243e-13
3.950222347532347e-13
9.27785407611058e-13
2.1337301256859703e-12
4.782652828186882e-12
1.0413272779143759e-11
2.197077984336204e-11
4.483718041595852e-11
8.83652968757282e-11
1.679302344843205e-10
3.072786822959544e-10
5.405896056453892e-10
9.133579781270064e-10
1.4815950343330207e-09
2.311169711018565e-09
3.485282939200479e-09
5.139863508368525e-09
7.563955639430194e-09
1.1419853635482249e-08
1.814273705023873e-08
3.055019679258484e-08
5.360365767741382e-08
9.510330137175607e-08
1.6588708592300942e-07
2.78921722466184e-07
4.4666363007237297e-07
6.764161751669311e-07
9.642697229066502e-07
1.289590213573702e-06
1.6136532243958893e-06
1.8872873048341212e-06
2.072385662398669e-06
2.1799327925330455e-06
2.3222687473342638e-06
2.77014332995738e-06
3.997482100088114e-06
6.6916658501154966e-06
1.17078500546748e-05
1.995473456510209e-05
3.221606930243199e-05
4.893359339073258e-05
6.999676753696489e-05
9.459529430085788e-05
0.00012118641196493526
0.0001476087618082119
0.00017134194595130883
0.0001898738959839688
0.00020110719697658997
0.0002037198861032772
0.0001974013797326799
0.00018290979630845625
0.0001619369300227211
0.00013681112349850163
0.00011010453415075167
8.423009832919076e-05
6.111022085516448e-05
4.197572442802209e-05
2.7317614914519056e-05
1.6976692586671402e-05
1.0327408787178066e-05
6.4992475185993785e-06
4.582375124297507e-06
3.780301874596383e-06
3.493825163509309e-06
3.3404218556311526e-06
3.126551992258336e-06
2.7952882743961384e-06
2.369486328648e-06
1.90426664938089e-06
1.4550780259537746e-06
1.0614434147488778e-06
7.4278709564352e-07
5.015014223831922e-07
3.2892971008930287e-07
2.1131252347564346e-07
1.3421609605681843e-07
8.509378440446492e-08
5.428569160740546e-08
3.5000507517940195e-08
2.279535384899169e-08
1.492150440819961e-08
9.740180228651552e-09
6.285917514420857e-09
3.978855029882859e-09
2.453605737826689e-09
1.4658574634195787e-09
8.444785868505362e-10
4.672436583394066e-10
2.474760430972899e-10
1.2529718120055546e-10
6.088400157319524e-11
2.8925397270670547e-11
1.4131500080904874e-11
7.776232321304912e-12
5.1958454588994106e-12
4.091693483321509e-12
3.4503467589737148e-12
2.9001546800373706e-12
2.3541233815533873e-12
1.8277427460823595e-12
1.3562724152377895e-12
9.64150658649422e-13
6.589317792830453e-13
4.3484687951153144e-13
2.786612363567649e-13
1.7472584469660845e-13
1.0829970868964466e-13
6.722272153512444e-14
4.238378803316492e-14
2.7472912726517873e-14
1.8411540872107567e-14
1.272285200821817e-14
8.983376126442182e-15
6.4091874060643225e-15
4.576358506862408e-15
3.2498955251961363e-15
2.288758542328417e-15
1.5982177567555916e-15
1.1083647104470026e-15
7.65271094446911e-16
5.273041396153342e-16
3.6306916068156523e-16
2.496677388578067e-16
1.7098421222226288e-16
1.1606056320323945e-16
7.766219348993751e-17
5.108918411179564e-17
3.3243366804268355e-17
2.194213173764081e-17
1.5464810866897364e-17
1.2311162246225034e-17
1.113652149602515e-17
1.0807982833301362e-17
1.0510945771022463e-17
9.836397601641071e-18
8.801627664022465e-18
7.796961430946728e-18
7.496416953998734e-18
8.80422772230094e-18
1.2916148196482382e-17
2.154443798763645e-17
3.728751378500145e-17
6.402887333460121e-17
1.0714504550836823e-16
1.732198404651458e-16
2.6894373319642125e-16
3.9897376314997185e-16
5.627963443214094e-16
7.511245198628835e-16
9.43110340829151e-16
1.1066778322570404e-15
1.205569636244316e-15
1.2181985740775288e-15
1.1749763850132748e-15
1.2221601243232874e-15
1.7207646967521201e-15
3.3874500697925413e-15
7.47822577413253e-15
1.600178514244978e-14
3.192258022400783e-14
5.926940246722532e-14
1.0300038897021191e-13
1.6839419430399397e-13
2.596600187480053e-13
3.7744045475948694e-13
5.150420140806372e-13
6.538220544807235e-13
7.596979283931637e-13
7.862250812622616e-13
6.970235118249451e-13
5.350429457344292e-13
5.945480187801571e-13
1.804656426389489e-12
6.528944681750616e-12
2.0153441161091807e-11
5.412138968426898e-11
1.315477659336758e-10
2.973133899491781e-10
6.357453895971857e-10
1.3008398977085904e-09
2.5667381075177185e-09
4.910155263660956e-09
9.142068400155378e-09
1.661362428015515e-08
2.9531403082229768e-08
5.143036183256023e-08
8.786946038303222e-08
1.474354008533036e-07
2.431635442277235e-07
3.945092145230518e-07
6.30019957048173e-07
9.908543314080591e-07
1.5352377455255877e-06
2.3437988292985586e-06
3.525439227125704e-06
5.222909470500415e-06
7.616583880769625e-06
1.0924117759319132e-05
1.539292358743723e-05
2.128205746928009e-05
2.8830611452486432e-05
3.821150596760499e-05
4.947291014747463e-05
6.247418274025816e-05
7.682838479145586e-05
9.186757669386689e-05
0.00010664839056499578
0.00012001203612634035
0.00013070412253151807
0.00013754620199355944
0.00013963538266720236
0.00013653488511336612
0.00012841171763466208
0.00011608142020682878
0.00010093525738621738
8.475003650640726e-05
6.940922148323448e-05
5.658847810931342e-05
4.74716962287495e-05
4.2560072090736144e-05
4.1616776517731744e-05
4.375792568390631e-05
4.766567374648934e-05
5.1871075578677816e-05
5.504070847274184e-05
5.6205115097751555e-05
5.4886672087202876e-05
5.111277383546469e-05
4.532857500546453e-05
3.8244296652729123e-05
3.066089140602679e-05
2.3314426178103398e-05
1.676708196871115e-05
1.135622072924711e-05
7.197543943746854e-06
4.227566548317863e-06
2.265996082322529e-06
1.0797182828236271e-06
4.3515642799267735e-07
1.3244709172503808e-07
2.102518956554131e-08
4.4101427784040776e-10
1.2077464993610811e-08
2.7233329517242283e-08
3.5583599168941116e-08
3.618664846063578e-08
3.162902569925909e-08
2.4893363518102022e-08
1.8115844199352253e-08
1.240233371202588e-08
8.086125670016464e-09
5.066387067266991e-09
3.0705424187976885e-09
1.807769476408878e-09
1.0361242443708083e-09
5.7827582599323e-10
3.1389241689165323e-10
1.6533909993104345e-10
8.427308700128031e-11
4.1434117345564205e-11
1.9585371873877262e-11
8.868102111956218e-12
3.830235745770122e-12
1.569726695107025e-12
6.060816640812487e-13
2.182245454236925e-13
7.215472860670681e-14
2.1399791651862125e-14
5.5115829548577445e-15
1.2270539907507368e-15
3.2390837626192335e-16
2.084806089616467e-16
1.9635301404566881e-16
1.652632995841613e-16
1.2060398940356507e-16
7.893126771138811e-17
4.758119277127808e-17
2.678440292469372e-17
1.408755211167865e-17
7.008494405102487e-18
3.646002146516001e-18
2.2782246959624165e-18
1.4088281194763354e-18
7.023893206972732e-19
2.2353340306722866e-19
1.011137802127991e-18
2.168036874496461e-18
3.2875285264495925e-18
5.614321228589563e-18
1.1841243874023315e-17
2.5438195230417773e-17
5.1759017537753404e-17
1.0245105626049237e-16
2.0473607485827982e-16
4.224724507584615e-16
9.116078281235729e-16
2.0698525775192496e-15
4.929511310762854e-15
1.2154248460613978e-14
3.048140315612248e-14
7.647912743726092e-14
1.8954966425413008e-13
4.599856487006522e-13
1.0866709916526543e-12
2.489941353406397e-12
5.5208266436888265e-12
1.1826574020911928e-11
2.4445814374498763e-11
4.8694161209435275e-11
9.332292518468607e-11
1.7173644235214598e-10
3.027079969559391e-10
5.096414794343999e-10
8.174133246081206e-10
1.2471957853487866e-09
1.8140886506784857e-09
2.54184107888553e-09
3.524329345154276e-09
5.0820789218399405e-09
8.074639185380053e-09
1.4418444754639927e-08
2.780215771436596e-08
5.4470230564071914e-08
1.0376788575859207e-07
1.8796038350319174e-07
3.2076880450719643e-07
5.1426270867423e-07
7.743710796022718e-07
1.0963722832045677e-06
1.4631407774444984e-06
1.8501942072233771e-06
2.241929351775911e-06
2.6619712395775863e-06
3.2166688649646407e-06
4.144618206842321e-06
5.858041706466304e-06
8.956474242211946e-06
1.4192643703631665e-05
2.237716122223448e-05
3.422301140552212e-05
5.015017358243565e-05
7.008951272122442e-05
9.333661231748708e-05
0.00011850493382180622
0.0001436115353488742
0.00016630020168791794
0.000184173055713597
0.00019517161142803128
0.00019793044257960068
0.0001920268969172434
0.0001780696838575463
0.00015760367659110966
0.00013284954305572692
0.00010633419791061531
8.049150889608288e-05
5.731583573160668e-05
3.8133325200578904e-05
2.3523123085220545e-05
1.338283471792165e-05
7.100629765170221e-06
3.778524999510105e-06
2.450523173853957e-06
2.2527744440557355e-06
2.5242158592180148e-06
2.8376460595163975e-06
2.9769600586915564e-06
2.883543898139066e-06
2.5941139893717273e-06
2.186280743260216e-06
1.7402074560238137e-06
1.3177183811268228e-06
9.556236039341522e-07
6.681364359074697e-07
4.534540220048407e-07
3.0090587367004374e-07
1.966866536397629e-07
1.2752404093719887e-07
8.246937214503506e-08
5.336183849382978e-08
3.455045586240911e-08
2.232461695017315e-08
1.4328226957209789e-08
9.084069188280235e-09
5.658282617474922e-09
3.4460650511835283e-09
2.0441223742574967e-09
1.1775691664509505e-09
6.577251993399923e-10
3.562460924254355e-10
1.8774633654447158e-10
9.718759999311128e-11
5.0417442613926544e-11
2.713165765765387e-11
1.5814915577478708e-11
1.026905517728734e-11
7.351076247735498e-12
5.576877263219396e-12
4.3062757022645916e-12
3.2947889473255027e-12
2.4631941625966793e-12
1.788715645239508e-12
1.2597682112282764e-12
8.612988391245285e-13
5.731580533556349e-13
3.727930095056681e-13
2.383794673585419e-13
1.5099016126850075e-13
9.557428631083621e-14
6.100136361534102e-14
3.9543803012373786e-14
2.6127925865471356e-14
1.758029844857338e-14
1.1991863537438334e-14
8.242090659114496e-15
5.6755409628292565e-15
3.899797225351538e-15
2.6684850235432064e-15
1.817877617876965e-15
1.2340400417683611e-15
8.357852623318244e-16
5.65142667089511e-16
3.8123559744467986e-16
2.558123248849052e-16
1.6978116117977874e-16
1.1051542647691179e-16
6.980108788057762e-17
4.2312877887987367e-17
2.4512972114548782e-17
1.3888001617409747e-17
8.464484139763604e-18
6.5559192812328954e-18
6.691893217444485e-18
7.666335007909713e-18
8.630908578862553e-18
9.162818082181749e-18
9.260392574531437e-18
9.261519679284131e-18
9.726979065866766e-18
1.1365396941579839e-17
1.5081960321382936e-17
2.2198704354578685e-17
3.482016133657032e-17
5.621678556200835e-17
9.099427905577727e-17
1.4474455876805925e-16
2.228756399820915e-16
3.284371549805464e-16
4.590341194007061e-16
6.03378771699975e-16
7.386745384273051e-16
8.308451148805991e-16
8.405932084821285e-16
7.393721352758108e-16
5.405319232597975e-16
3.520118816373881e-16
4.575656954856618e-16
1.4326138525252454e-15
4.296439756116179e-15
1.069126886337898e-14
2.3056093747767675e-14
4.472351782761754e-14
7.980734366057254e-14
1.3266899266462893e-13
2.0666864188449582e-13
3.0186968775861115e-13
4.114815000017859e-13
5.173217442282295e-13
5.859041989375197e-13
5.697703475172615e-13
4.24984594292224e-13
1.6820710186012474e-13
2.0565082168940738e-14
7.294540838728605e-13
4.2381402997903765e-12
1.5010717247427682e-11
4.2555260373794915e-11
1.0608159205577189e-10
2.428748033243852e-10
5.229995766428593e-10
1.074570945480906e-09
2.1263046101854097e-09
4.077744544198266e-09
7.612883807424614e-09
1.3880328654688879e-08
2.4773202866405297e-08
4.335508556800395e-08
7.449465921125436e-08
1.257911653150761e-07
2.088938886318349e-07
3.4133814579781007e-07
5.490299150795215e-07
8.694967606628033e-07
1.3559600012628075e-06
2.0821376268667835e-06
3.1474183492318953e-06
4.681619965524615e-06
6.847956682504413e-06
9.842153132294058e-06
1.3885022672412753e-05
1.9205559580998268e-05
2.6012058425390608e-05
3.445034943562076e-05
4.455114231820897e-05
5.6172549879947637e-05
6.894842467838175e-05
8.225692062530767e-05
9.52250436308256e-05
0.00010678231627851685
0.00011576920036557015
0.00012109407556558213
0.00012191849250653185
0.00011783768220922335
0.00010901611838533981
9.623984612682449e-05
8.085983208916483e-05
6.462228713767254e-05
4.940819086759813e-05
3.6928378909116387e-05
2.843548678125124e-05
2.451461713283202e-05
2.499940263454276e-05
2.90323338869681e-05
3.525489794221129e-05
4.208323623897449e-05
4.800683685660756e-05
5.184593907524329e-05
5.291765428686173e-05
5.108639958106611e-05
4.670328205582589e-05
4.04634788807141e-05
3.322458922101365e-05
2.5830283866137276e-05
1.897406179315583e-05
1.3121941183718854e-05
8.495793955363706e-06
5.105338206779481e-06
2.809206375893934e-06
1.3844624299343468e-06
5.880560773375531e-07
2.0055306971470255e-07
4.954513767479942e-08
1.5541127226764492e-08
2.6006291573153213e-08
4.36608942795108e-08
5.392824697337221e-08
5.449616831988249e-08
4.812363568089738e-08
3.8537981700995065e-08
2.8629975478364654e-08
2.0032831788674614e-08
1.3345583028621469e-08
8.531656748847491e-09
5.263779931267537e-09
3.146156439220412e-09
1.825580289187686e-09
1.0290634076150675e-09
5.63202218937878e-10
2.9883593424811465e-10
1.5340191186318182e-10
7.598601604979634e-11
3.6209770295893976e-11
1.6540398074003473e-11
7.2101831069705945e-12
2.9814458391794578e-12
1.1594758838546078e-12
4.1851273824003833e-13
1.3714403840609896e-13
3.916561740169336e-14
8.924065082759366e-15
1.2663200796029026e-15
4.803831625562949e-17
1.6898634010542458e-16
3.2811202315770105e-16
3.4461046864137465e-16
2.784530667004071e-16
1.9393083832900347e-16
1.2234100729260647e-16
7.168192659343257e-17
3.963067044727005e-17
2.111649600346589e-17
1.1204556169728175e-17
5.891863049915655e-18
2.65184071538426e-18
3.2856106194169684e-18
1.8861151876062964e-18
1.7911195269348215e-18
1.5390949867753803e-18
9.823500728965507e-19
1.358158501221363e-18
4.009046652343788e-18
9.52072773354331e-18
1.8777527161346915e-17
3.543874498120357e-17
6.901534818215928e-17
1.413803896186081e-16
3.0799372303594576e-16
7.230626193317082e-16
1.8223920143645296e-15
4.809425403140058e-15
1.2891516121723725e-14
3.42811024475322e-14
8.912746824565403e-14
2.247327920689534e-13
5.472962618649621e-13
1.2848340497977006e-12
2.905432218147275e-12
6.326834762192881e-12
1.3262651795292393e-11
2.67428918253685e-11
5.1791476149457367e-11
9.609219694496232e-11
1.7018183919731234e-10
2.863083085422388e-10
4.548550845881643e-10
6.779070011184597e-10
9.4252209150715e-10
1.2234910442815282e-09
1.5183009960988675e-09
1.9547402057581758e-09
3.027946657304268e-09
6.025278168731848e-09
1.3664675722773483e-08
3.088716259820398e-08
6.560494287155556e-08
1.2904643074540972e-07
2.3524080201379582e-07
3.992753381668719e-07
6.343786009017011e-07
9.487114995587681e-07
1.343907494696064e-06
1.818558440266943e-06
2.380374500872851e-06
3.0698628384843547e-06
3.995412299835096e-06
5.37458055397184e-06
7.570137232606683e-06
1.110416965913624e-05
1.6632159622167507e-05
2.4863860114737367e-05
3.6429757512194254e-05
5.1708875372683466e-05
7.065095607781595e-05
9.263759739593367e-05
0.00011642752860640473
0.0001402186663525596
0.00016183574091353334
0.00017902265205052006
0.0001897908809456673
0.0001927567538597192
0.00018739660005483372
0.00017416194928368883
0.00015442487098187631
0.0001302603783533948
0.00010410958066274423
7.839422999329814e-05
5.5162801488814104e-05
3.583737341151387e-05
2.110257466383447e-05
1.0941284414848604e-05
4.7875367944837775e-06
1.7446829403081755e-06
8.111502103313946e-07
1.0661547852621438e-06
1.7877967174747545e-06
2.4983919043752834e-06
2.9498950745769646e-06
3.0720183784391137e-06
2.9068042367899937e-06
2.548272245435761e-06
2.0977721259315995e-06
1.637976384223683e-06
1.2229917685277225e-06
8.794436042531886e-07
6.131417203080104e-07
4.171292283528484e-07
2.7859856190817373e-07
1.8366628535393306e-07
1.2001700482042984e-07
7.792871096458328e-08
5.030573187709249e-08
3.224235071826795e-08
2.046244537990099e-08
1.2815491882161947e-08
7.893176654618744e-09
4.766268553871926e-09
2.815259362050777e-09
1.6245598578373367e-09
9.16056237838568e-10
5.059106273897368e-10
2.751391605396185e-10
1.4884835871094421e-10
8.141108401882553e-11
4.601047667814819e-11
2.7475430335298094e-11
1.755839454256189e-11
1.195635795874259e-11
8.51602585963402e-12
6.202043087702837e-12
4.531568544667435e-12
3.2795546588405586e-12
2.3334716972325004e-12
1.6264712033606443e-12
1.109499849335417e-12
7.414272293840016e-13
4.86617234264722e-13
3.149298636482401e-13
2.0201615748753483e-13
1.2919429521419469e-13
8.284536512355768e-14
5.350891421756872e-14
3.4894552796896474e-14
2.2973271084096186e-14
1.5236750384054977e-14
1.0148261853601855e-14
6.766929037166175e-15
4.507821803335829e-15
2.997408681614187e-15
1.990044115935602e-15
1.3205152151987976e-15
8.765550401474731e-16
5.820086052636365e-16
3.857562644661587e-16
2.540026034058936e-16
1.6477334219866115e-16
1.0399357952218594e-16
6.27318408220296e-17
3.5294978029980675e-17
1.793507174266525e-17
7.999734226201588e-18
3.4142330988916454e-18
2.4183228335578825e-18
3.491499110677313e-18
5.395948365971927e-18
7.260692198661188e-18
8.636764913693205e-18
9.478847224604841e-18
1.005099982410409e-17
1.0800872651001773e-17
1.2280256209500518e-17
1.51928972955845e-17
2.061290302792321e-17
3.034029148373854e-17
4.725948732080031e-17
7.54696898322214e-17
1.198999759628343e-16
1.851465902402378e-16
2.7340976904084264e-16
3.8168320239136107e-16
4.987605563742878e-16
6.031490728068718e-16
6.635882699596474e-16
6.445400318881422e-16
5.197519557893526e-16
2.9782951150576694e-16
6.467161561599495e-17
4.8403645027518684e-17
7.123516885148658e-16
2.879015266332946e-15
7.880010194045926e-15
1.7709261873690458e-14
3.512415384717912e-14
6.358766257442293e-14
1.0687461573319074e-13
1.6809110535298377e-13
2.478196561430149e-13
3.4120031070507237e-13
4.341875974250887e-13
5.003699457066485e-13
5.023200162350062e-13
4.0676721823012835e-13
2.332646536642756e-13
1.754901918592945e-13
8.697533896816374e-13
3.948245055457244e-12
1.312427516430964e-11
3.624470449596681e-11
8.906189187756204e-11
2.0200434225317045e-10
4.320859137603012e-10
8.834720239360763e-10
1.7423787177164542e-09
3.3352665761329193e-09
6.2241450046360544e-09
1.1359729447833157e-08
2.0322712664780617e-08
3.569594541807429e-08
6.16260115648418e-08
1.046510443339833e-07
1.7489095900926046e-07
2.8771263353990647e-07
4.6598823815519456e-07
7.430464227671677e-07
1.1663523510968136e-06
1.8018147332416422e-06
2.7383731410462897e-06
4.092140908726012e-06
6.00886867686092e-06
8.66290722600853e-06
1.2250326279395547e-05
1.6973628690775317e-05
2.3015906626526057e-05
3.050364215983928e-05
3.9459852380421165e-05
4.975280876878917e-05
6.104955877378907e-05
7.27868844796056e-05
8.417373933688755e-05
9.423721898205112e-05
0.00010191791062602713
0.0001062102880835926
0.00010633135500412264
0.0001018889754069097
9.301393361194527e-05
8.042002074640936e-05
6.536607080849927e-05
4.9512108791638705e-05
3.468514517921359e-05
2.2593063010218125e-05
1.4541195544085505e-05
1.1210411564762074e-05
1.2545483614394913e-05
1.7779746331207187e-05
2.5591850768007336e-05
3.436052113346675e-05
4.246158932352665e-05
4.854399124551635e-05
5.172961703525857e-05
5.1703123389099315e-05
4.86856567684332e-05
4.331304076202976e-05
3.645750368739263e-05
2.9038607346515645e-05
2.1863638185040364e-05
1.5523615446168563e-05
1.035340263158806e-05
6.448388077063912e-06
3.719585398598727e-06
1.9652998539414575e-06
9.399955563071783e-07
4.07437342829207e-07
1.7280936313966172e-07
9.499233138482917e-08
8.417844096620607e-08
9.129870660743627e-08
9.495310251386252e-08
8.966482670112065e-08
7.725929969786556e-08
6.160192052519466e-08
4.6036598925957e-08
3.2577291537635804e-08
2.200323552282921e-08
1.4271612133984675e-08
8.929938183778179e-09
5.40730508892337e-09
3.174609941326937e-09
1.808468860607983e-09
9.994569713380758e-10
5.353476417522037e-10
2.774892032375452e-10
1.3889602980420392e-10
6.696358283647083e-11
3.099460122435916e-11
1.3715689453204674e-11
5.769928491780659e-12
2.2887740092081076e-12
8.45480535752143e-13
2.8498727403049073e-13
8.454224303435189e-14
2.0561622856973735e-14
3.537555227915659e-15
4.834138121470593e-16
5.666066318794778e-16
8.566663873365376e-16
8.721848293921801e-16
7.092203975570435e-16
5.026304848216077e-16
3.2426761090221467e-16
1.9512819057829284e-16
1.1132501273686514e-16
6.105793711800477e-17
3.245831141713804e-17
1.6483661414693528e-17
7.644236912539207e-18
1.2099129798575219e-17
6.616370756289429e-18
3.819157928259062e-18
1.6768228814380304e-18
2.0410005829449027e-19
2.441304202136271e-19
1.8439808525759915e-18
4.114547564739333e-18
6.73287780842775e-18
1.1270914100680267e-17
2.1216913565994802e-17
4.272677688995158e-17
9.226388736256295e-17
2.2467045165938127e-16
6.16618653857289e-16
1.7995307224498045e-15
5.2787586824970785e-15
1.5088075062883638e-14
4.146517952705058e-14
1.0905576827242746e-13
2.742624841273287e-13
6.600939512581125e-13
1.5226838019191217e-12
3.3714879131577183e-12
7.172568435383521e-12
1.4662347519347372e-11
2.8765601415435987e-11
5.400570791387803e-11
9.656777813901006e-11
1.6331826816157597e-10
2.5875510740611445e-10
3.7908901369935913e-10
5.045565573960037e-10
5.963503193334815e-10
6.149507690683832e-10
5.92395846331812e-10
8.08510538365495e-10
2.1306688552630588e-09
6.562633603335943e-09
1.799370965181967e-08
4.303809435023608e-08
9.172428053928197e-08
1.7769233316490958e-07
3.1757939851977277e-07
5.29536995558073e-07
8.314130826035789e-07
1.2400241490281963e-06
1.773916538515754e-06
2.4626000875377528e-06
3.3647624448307666e-06
4.595801451194046e-06
6.360938928113351e-06
8.984864484912042e-06
1.2924040856646449e-05
1.874598467240468e-05
2.7063356993521677e-05
3.842046628428347e-05
5.314429736301691e-05
7.118746389404324e-05
9.20012602487741e-05
0.0001144786409554863
0.00013699740257509853
0.00015757444424246704
0.0001741171110159692
0.00018473326606179884
0.00018804387707280969
0.0001834352429714705
0.00017119510695865606
0.00015249761727122784
0.00012923297109021628
0.00010371194748689253
7.830463358039215e-05
5.508800219955263e-05
3.5573471670703634e-05
2.0563694507139098e-05
1.0154080580383313e-05
3.859294753329245e-06
8.18571573232522e-07
2.2874194789500067e-08
5.126573773224367e-07
1.512850332066496e-06
2.4941954443980303e-06
3.169870323223415e-06
3.4485274592489712e-06
3.3681953762247034e-06
3.0316251879365536e-06
2.5559748919981786e-06
2.0415855801214983e-06
1.5583674568778508e-06
1.144921441944623e-06
8.147395640591715e-07
5.647719061569759e-07
3.833200453754109e-07
2.5585010269270635e-07
1.6850480326615828e-07
1.0974109730129715e-07
7.072931843190869e-08
4.509261668778064e-08
2.8397519749536414e-08
1.7631587867490893e-08
1.0771426055164132e-08
6.464047458865162e-09
3.806820469208198e-09
2.2002379518487694e-09
1.2498673981190419e-09
7.001874653309769e-10
3.8912485133031264e-10
2.1647487911751378e-10
1.220317806892721e-10
7.069983941389703e-11
4.263629422543689e-11
2.6948976997572288e-11
1.7818719711222864e-11
1.2206199030348945e-11
8.547597626018363e-12
6.039749980104537e-12
4.2617686502169305e-12
2.9812638403002365e-12
2.0583037346899984e-12
1.3994658551519774e-12
9.366902978250858e-13
6.178683880064686e-13
4.02602017173496e-13
2.599806716437143e-13
1.6699324039944657e-13
1.0708051045675621e-13
6.874130397695045e-14
4.4251603581422524e-14
2.8572497548535835e-14
1.84879347286317e-14
1.1970907681761008e-14
7.746530684196172e-15
5.007076529172396e-15
3.2340747005038818e-15
2.090264164277017e-15
1.354375785446966e-15
8.810818415416297e-16
5.755353720255846e-16
3.765687525072232e-16
2.453221101135847e-16
1.574901950999985e-16
9.807474069508778e-17
5.788384694404711e-17
3.1233505511798955e-17
1.4464545891907996e-17
5.0141538308541865e-18
8.742539896257235e-19
3.268161748092145e-19
1.8723289342599704e-18
4.273474387252356e-18
6.636724458864842e-18
8.464275328580101e-18
9.635132455237126e-18
1.0315272029582849e-17
1.0841169549045417e-17
1.1651476843596176e-17
1.3341761021125697e-17
1.6877859096842884e-17
2.392777584880913e-17
3.7177593976715434e-17
6.041334449831943e-17
9.811486151079285e-17
1.543545262937617e-16
2.3094733357827827e-16
3.2506234735864344e-16
4.268582275905605e-16
5.181067108041197e-16
5.731761167710255e-16
5.641479266363417e-16
4.722737044667627e-16
3.0854409365870905e-16
1.4693186998439262e-16
1.7482798996301227e-16
7.658318338350931e-16
2.5791216194103266e-15
6.684721572881755e-15
1.470143278187828e-14
2.890951726001079e-14
5.2259724387371494e-14
8.814469980713406e-14
1.397406127298627e-13
2.0870290821008627e-13
2.9309443608831794e-13
3.8480656763808255e-13
4.677254916294025e-13
5.200801460553355e-13
5.288162280358958e-13
5.322596885299086e-13
7.228212781835334e-13
1.6692441671463198e-12
4.766695896437913e-12
1.3107689538904032e-11
3.3112332847417455e-11
7.750427893320129e-11
1.7063686126293405e-10
3.578700771035911e-10
7.218382884511778e-10
1.4102714075817972e-09
2.6828707175803658e-09
4.989021632475527e-09
9.094354426210145e-09
1.6282866847510705e-08
2.86729328362949e-08
4.970017111150423e-08
8.483731168110485e-08
1.4263911398610162e-07
2.3621515060910252e-07
3.852375470620861e-07
6.185722865594817e-07
9.775629758152663e-07
1.5198705297549992e-06
2.323554058678226e-06
3.490746951006256e-06
5.149840468290217e-06
7.454583921916629e-06
1.0578064401391364e-05
1.4699341395388453e-05
1.9980850963078382e-05
2.653583594810233e-05
3.4387175503537025e-05
4.342200477122322e-05
5.334998317824066e-05
6.367611351591136e-05
7.370044372541668e-05
8.25555874219731e-05
8.928798668826504e-05
9.298030626414532e-05
9.290157382605759e-05
8.866109379473787e-05
8.033485989186734e-05
6.853210003204396e-05
5.437647339181186e-05
3.939110671162941e-05
2.5296626587046808e-05
1.3752207971703098e-05
6.0860765232245575e-06
3.069022838758752e-06
4.7794108684384196e-06
1.0591014993190806e-05
1.9289251809399095e-05
2.9293098389522186e-05
3.8936430454401014e-05
4.6749940211496084e-05
5.16865881249766e-05
5.3249076785750045e-05
5.150259984307948e-05
4.6983132727035086e-05
4.053354586813598e-05
3.311153972827652e-05
2.561293677640251e-05
1.874297393219773e-05
1.2951359953923242e-05
8.429424671979131e-06
5.154337644267957e-06
2.9587300297228483e-06
1.604309255569761e-06
8.434262548631051e-07
4.6025567329418534e-07
2.905795917282771e-07
2.243034688160154e-07
1.9714247630052577e-07
1.7777908759305636e-07
1.5515917510102535e-07
1.2849160817437657e-07
1.0070377771138827e-07
7.494250214787883e-08
5.3211362668992454e-08
3.621735652600866e-08
2.3726381831081443e-08
1.5009249290888385e-08
9.190334004287924e-09
5.455166027755603e-09
3.1412339977769024e-09
1.7547277048132568e-09
9.503259939427772e-10
4.984257089497945e-10
2.527579629501657e-10
1.2367911051584784e-10
5.824343211155192e-11
2.6309065562582392e-11
1.1348795450663274e-11
4.6468128648838365e-12
1.7908385559538775e-12
6.420168095541726e-13
2.1089413993254922e-13
6.276986704680987e-14
1.7627316846634336e-14
6.061574055706719e-15
3.710100773159376e-15
3.1394292230921304e-15
2.61009828356673e-15
1.9748793127705363e-15
1.368421072342608e-15
8.825621898874073e-16
5.371447285858502e-16
3.1181741028797365e-16
1.7403084782145743e-16
9.370646861496367e-17
4.8535688905423997e-17
2.4202674176567198e-17
3.836842284725915e-17
1.986208196286776e-17
9.813048384102722e-18
4.033207778000177e-18
1.322784775229117e-18
1.0583518780905817e-18
1.848277386788928e-18
2.243100743031611e-18
2.166247845786772e-18
2.9674965903771222e-18
5.953879521340917e-18
1.1671881756831695e-17
2.320813572789318e-17
5.869821272414483e-17
1.886011623601239e-16
6.455928874624522e-16
2.1334511524362007e-15
6.6318909286720264e-15
1.9341834365197732e-14
5.308806869799242e-14
1.377331223477795e-13
3.3931789309450203e-13
7.972118095310442e-13
1.7929034689799961e-12
3.870400531154605e-12
8.030572920795934e-12
1.6005277107890368e-11
3.0550430019716034e-11
5.5534621218237626e-11
9.531241121452976e-11
1.5253768022425213e-10
2.2354897388673735e-10
2.915957530349457e-10
3.2191789183543253e-10
2.707668252321395e-10
1.3379007724620353e-10
7.600799294670905e-11
6.99350443705229e-10
3.5025397377806404e-09
1.155789261131392e-08
3.0361880016349085e-08
6.871966224124774e-08
1.3943488228490872e-07
2.595628219679536e-07
4.5013618475281854e-07
7.356652470430832e-07
1.1443566020779202e-06
1.7107531917092367e-06
2.483033737305447e-06
3.536988190893268e-06
4.99713445592443e-06
7.0622771334622615e-06
1.0028447837797226e-05
1.429797820919244e-05
2.0361570622908937e-05
2.874276132624523e-05
3.990207078556317e-05
5.4110262259003545e-05
7.131314661685822e-05
9.101977990607389e-05
0.00011224780411785143
0.00013355240911807758
0.00015315012657561377
0.00016912884790631482
0.00017971549675627888
0.0001835568962736396
0.00017996102357578831
0.00016904761491135206
0.00015177028502001388
0.00012979609110635686
0.00010525879491805484
8.043176540217139e-05
5.7386826155360624e-05
3.77093080260778e-05
2.2324837025681522e-05
1.146399868543383e-05
4.7561356548646165e-06
1.4139930954033609e-06
4.55094998099203e-07
9.066065887870182e-07
1.9551492643144963e-06
3.0247393059167376e-06
3.7869904835809255e-06
4.122176328955264e-06
4.0553606197153275e-06
3.6895753128930874e-06
3.1510168715606705e-06
2.5529520760261494e-06
1.9781622024017353e-06
1.4756184524349058e-06
1.0656985032555227e-06
7.488543502466945e-07
5.142144465266208e-07
3.4630263783065123e-07
2.2938213905837204e-07
1.4972132614800068e-07
9.639272753642182e-08
6.121890746787377e-08
3.833282158408444e-08
2.3643396307356234e-08
1.4351697860840141e-08
8.568130692190506e-09
5.031139267043787e-09
2.9084507544081498e-09
1.6589788553879303e-09
9.372798824050487e-10
5.275172200027632e-10
2.980563141853489e-10
1.7065205794102428e-10
9.998360135569205e-11
6.044042909342765e-11
3.7864530573539207e-11
2.456567101975826e-11
1.641447012280077e-11
1.1201114175166696e-11
7.734594728485113e-12
5.359663859109138e-12
3.702295374442271e-12
2.537274292175478e-12
1.7200146589546669e-12
1.1517392295872689e-12
7.617273669361414e-13
4.980774398902661e-13
3.2255572797426446e-13
2.0732628710403135e-13
1.3254760345432618e-13
8.443209509197282e-14
5.364319956603175e-14
3.4003244447192755e-14
2.1498437411441667e-14
1.3551425276064621e-14