# vtk DataFile Version 4.1 
COMMENT
ASCII
DATASET STRUCTURED_POINTS 
DIMENSIONS 300 300 1 
ORIGIN 0 0 0
SPACING 0.020943951023931952 0.020943951023931952 0 
POINT_DATA 90000
SCALARS U double 1
LOOKUP_TABLE default
7.004218685030103e-19
1.3663202484523265e-18
2.0047534809452947e-18
3.556365724854092e-18
7.394868023611862e-18
1.458973032893391e-17
2.619975841897972e-17
4.37962782539779e-17
6.833467569150727e-17
9.764234406768785e-17
1.2816028556278865e-16
1.7840477340221854e-16
3.854166855899743e-16
1.3149347397673012e-15
4.828695830164753e-15
1.6260454727976102e-14
4.9400029441763865e-14
1.3702549778891053e-13
3.515613226028715e-13
8.428246118403036e-13
1.9024730369340003e-12
4.0672532483103094e-12
8.275274795634745e-12
1.6092177536203087e-11
3.0030573528560986e-11
5.40052906674918e-11
9.402122921648212e-11
1.5933984341888215e-10
2.6476660733075506e-10
4.356919768754873e-10
7.197835386243724e-10
1.2138940134109135e-09
2.123319715079867e-09
3.884419258002542e-09
7.4010303875157735e-09
1.4467621220427577e-08
2.847091703866597e-08
5.546540651979458e-08
1.0569266726630081e-07
1.9554882959448779e-07
3.498983144960914e-07
6.045012144731569e-07
1.0081963209928189e-06
1.6243907600878208e-06
2.5313538246033376e-06
3.820756565161994e-06
5.593769654972994e-06
7.953793848828919e-06
1.0994650723864389e-05
1.4783123539572107e-05
1.9335602849310894e-05
2.459069576927533e-05
3.0382984664143745e-05
3.6426826376360245e-05
4.2321439793500666e-05
4.7587425709592676e-05
5.173882540865347e-05
5.4384161612558635e-05
5.5337313487654024e-05
5.4709150956669325e-05
5.2948437817767726e-05
5.080849995268979e-05
4.9233770101084296e-05
4.9182853452678765e-05
5.142503388513284e-05
5.635817482107094e-05
6.389364701497116e-05
7.343854012593673e-05
8.398152478334069e-05
9.42633944109466e-05
0.00010299368337489471
0.0001090658452011227
0.00011172686944593218
0.0001106709798977504
0.00010604665949106744
9.838611136016136e-05
8.848141421219996e-05
7.723897263817379e-05
6.554279719499592e-05
5.4149379751225575e-05
4.3625635857217014e-05
3.433007189966749e-05
2.642877027690652e-05
1.9933367219573777e-05
1.4747865498087573e-05
1.0713750211381255e-05
7.646885467870971e-06
5.363629250604274e-06
3.696586808281621e-06
2.5021007508142575e-06
1.6620909713790118e-06
1.082597630575792e-06
6.907666007464109e-07
4.313677038066154e-07
2.634237161370978e-07
1.5719888127693376e-07
9.162075071107556e-08
5.2133366832367484e-08
2.8953323190247926e-08
1.5691423861240036e-08
8.297367163739771e-09
4.28004574478309e-09
2.1531017222039406e-09
1.0559472857163184e-09
5.048142642757094e-10
2.354946703052082e-10
1.0769992988857386e-10
4.897216916068106e-11
2.2908101744594775e-11
1.1734805747040603e-11
7.04429610834152e-12
5.007036814047432e-12
3.966068406484019e-12
3.2592510152389372e-12
2.6579189160256197e-12
2.1072831475876777e-12
1.6112256989295773e-12
1.1846832921874694e-12
8.368292851815328e-13
5.676351812472392e-13
3.696258942496708e-13
2.310424734996506e-13
1.3876020694396488e-13
8.036981957704204e-14
4.5352895768525144e-14
2.5517820056085473e-14
1.4935855784114325e-14
9.603050910996034e-15
7.000710007717471e-15
5.665695047593844e-15
4.828593356556276e-15
4.139459776083376e-15
3.4775766020142966e-15
2.830423261231712e-15
2.223853543434401e-15
1.686821647055817e-15
1.2373194666846244e-15
8.799059620919841e-16
6.085106879973885e-16
4.107668999138228e-16
2.71948327328205e-16
1.7775434965998787e-16
1.158618053335224e-16
7.64867925852199e-17
5.2302505810470825e-17
3.803571940075061e-17
2.9982474246707897e-17
2.5586186048812877e-17
2.313419248200685e-17
2.156498103957405e-17
2.0343264738964314e-17
1.9353040765491056e-17
1.87740123757248e-17
1.8934272009821917e-17
2.0159657872817843e-17
2.265641189302078e-17
2.6462108075768083e-17
3.148134356520969e-17
3.759700016378315e-17
4.483151015876358e-17
5.354475877602411e-17
6.471181678933454e-17
8.042964692908249e-17
1.0494529350977719e-16
1.4664899462062287e-16
2.2159768458051867e-16
3.592153378052944e-16
6.109227921570592e-16
1.062794762163125e-15
1.8543431251612624e-15
3.20779697857587e-15
5.4764632787441035e-15
9.227310027132493e-15
1.5381435001981234e-14
2.5444822656205465e-14
4.186733251680816e-14
6.856562841504474e-14
1.1163206462721274e-13
1.8022777140471521e-13
2.8763705611971147e-13
4.524731118456921e-13
7.001278965862203e-13
1.0648354357162764e-12
1.5932818790998752e-12
2.3517144495606375e-12
3.4402883223057745e-12
5.021681151732501e-12
7.377616806925397e-12
1.1021131400715663e-11
1.6923380170931443e-11
2.6979790661412285e-11
4.4974989245300286e-11
7.856653357229078e-11
1.4328550758960682e-10
2.7038346762507187e-10
5.217282145313628e-10
1.0171053833486425e-09
1.982495227412152e-09
3.832436988246472e-09
7.305660364542069e-09
1.3680744530028827e-08
2.5107257723612544e-08
4.509657216588157e-08
7.922325205118765e-08
1.360889962505625e-07
2.285909789066001e-07
3.7550700649820657e-07
6.033507286351451e-07
9.483496627406131e-07
1.4582482851955255e-06
2.19343982673542e-06
3.2267088392220606e-06
4.640686016971529e-06
6.522092009620999e-06
8.95213989423142e-06
1.199324852149089e-05
1.5673589724762652e-05
1.9972850644771003e-05
2.4814507164818734e-05
3.0071057006362495e-05
3.558796343019407e-05
4.1228524633916665e-05
4.693521460693683e-05
5.279426121135392e-05
5.908198603768762e-05
6.626761335750241e-05
7.495170433881172e-05
8.573396159996518e-05
9.902696802880414e-05
0.00011485712517863296
0.00013271120694352976
0.0001514874085792439
0.00016958902325823891
0.0001851602608835186
0.00019641870294777078
0.00020200349491304506
0.00020124690245519757
0.0001942954770550558
0.00018205053096253949
0.00016595081039403784
0.00014766427542452435
0.00012877581190197162
0.00011054844899344203
9.38034180460266e-05
7.892310067474644e-05
6.594587962475919e-05
5.4703662397197905e-05
4.4953932229583934e-05
3.647372258368164e-05
2.910408309947959e-05
2.2751881039951508e-05
1.736602861871652e-05
1.2906639033324329e-05
9.32070401596034e-06
6.530499008270231e-06
4.434391923374413e-06
2.9158621289321853e-06
1.855531205578374e-06
1.1420233724763122e-06
6.793448842841964e-07
3.902508378802548e-07
2.1625536470020963e-07
1.1545135805364597e-07
5.93015614710265e-08
2.9283257890394384e-08
1.3916525657508722e-08
6.403599316322693e-09
2.9017511450114923e-09
1.3423689577409932e-09
6.699146809400798e-10
3.776048078722359e-10
2.389544777812307e-10
1.6109301745258294e-10
1.0957532212912375e-10
7.272510191480186e-11
4.6376230590532486e-11
2.8261899846878926e-11
1.6446859283793168e-11
9.151596865561726e-12
4.879610290876372e-12
2.499784598637052e-12
1.234201536737676e-12
5.893555679960204e-13
2.733061060056374e-13
1.2365195187723278e-13
5.485301024068304e-14
2.3981500946437317e-14
1.0384580806396451e-14
4.474274107567645e-15
1.9256616553368005e-15
8.301369960531278e-16
3.586441772052185e-16
1.5496285814355256e-16
6.689635054840611e-17
2.9133343140378135e-17
1.3061129596291927e-17
5.8976452539574555e-18
2.2781291542487218e-18
4.957378473775955e-19
1.5065231080380111e-19
1.0716960268330392e-18
7.993824130466918e-19
4.651235089748693e-19
8.971145140837647e-19
2.5758081467397534e-18
5.295301986775223e-18
9.056257020602153e-18
1.4605080616981876e-17
2.209639646165156e-17
2.8722213180203547e-17
2.827649137047006e-17
1.8899788122444165e-17
3.98292219096537e-17
3.022278425784077e-16
1.5824625695264009e-15
6.2614015541621485e-15
2.080812675958834e-14
6.123577187983955e-14
1.6421146366661282e-13
4.0814827830078936e-13
9.507659021872324e-13
2.092392212333314e-12
4.378334569011147e-12
8.76100944783219e-12
1.6857878887738657e-11
3.1373929310981476e-11
5.6826121311878785e-11
1.0085402177409966e-10
1.7672756742989015e-10
3.0840534536387263e-10
5.411378800169568e-10
9.639909156880436e-10
1.7569737927898202e-09
3.285920811055157e-09
6.283330006601648e-09
1.2171343765763316e-08
2.359873642852443e-08
4.526782244041801e-08
8.510791183660751e-08
1.5580030290645412e-07
2.7657702415768303e-07
4.751190060692429e-07
7.893000696026766e-07
1.2684885204577928e-06
1.9741224875745135e-06
2.9792541293746536e-06
4.366597878677483e-06
6.224227702326532e-06
8.637507912725476e-06
1.1675446442696853e-05
1.537004256709865e-05
1.9689031268991896e-05
2.450597069594595e-05
2.9576232628409557e-05
3.453135424510863e-05
3.890485367030375e-05
4.2197781414603464e-05
4.3981479470564365e-05
4.402049398547467e-05
4.238519759085914e-05
3.951734902319988e-05
3.621702459451269e-05
3.3536759394415696e-05
3.259420458486809e-05
3.434028354449109e-05
3.933692949577536e-05
4.760065716877865e-05
5.855400650630271e-05
7.11003025668163e-05
8.38061793649718e-05
9.515003682297389e-05
0.00010378028793578608
0.00010872815191238998
0.00010953445488311594
0.00010627322839496177
9.94798005977937e-05
9.001090218970295e-05
7.887466800695396e-05
6.706813777332801e-05
5.545086447522145e-05
4.466947761187391e-05
3.513399664828954e-05
2.703594041742699e-05
2.0392682625349456e-05
1.5102041652236151e-05
1.0994359227036364e-05
7.87432374313167e-06
5.549707278546704e-06
3.847835944951382e-06
2.622594013906668e-06
1.7552724957399619e-06
1.152125571551335e-06
7.40643053230247e-07
4.656937747021311e-07
2.860564727553351e-07
1.7147742080186657e-07
1.00225777259918e-07
5.7074579260642687e-08
3.1645254159935985e-08
1.7072325050968702e-08
8.954976163293234e-09
4.562230123720165e-09
2.2541002250871774e-09
1.077616459141524e-09
4.968337253446597e-10
2.1994614555115116e-10
9.310149245404602e-11
3.7753634997791606e-11
1.5102104248134155e-11
6.640973266047464e-12
3.89086124624839e-12
3.1608543824299995e-12
2.963339637482701e-12
2.7788427307791202e-12
2.4850510810321003e-12
2.102549105259095e-12
1.6873698408079252e-12
1.2898598169402183e-12
9.426166500715095e-13
6.604899451373196e-13
4.4488930919973635e-13
2.8888142240145037e-13
1.8156498968853346e-13
1.1121231969910555e-13
6.717408863953136e-14
4.078005253226218e-14
2.554268376561694e-14
1.695157436743018e-14
1.2082774514377962e-14
9.172518169121788e-15
7.238750247229294e-15
5.7850133612757915e-15
4.590438226295799e-15
3.573591612848897e-15
2.7122117100937494e-15
2.0011661184415253e-15
1.4341098616917345e-15
9.982549277626833e-16
6.752855482083889e-16
4.443073078160262e-16
2.8472607817704136e-16
1.782247755323159e-16
1.0971872421311383e-16
6.750142142171746e-17
4.2889773471346875e-17
2.965060264852066e-17
2.3410684184665287e-17
2.1163532821983113e-17
2.0909959110838803e-17
2.141602494826362e-17
2.2044462605929374e-17
2.2612456251075748e-17
2.3244628076487222e-17
2.4216241193308324e-17
2.5806924316722537e-17
2.8199191779162144e-17
3.145256665816851e-17
3.5564503787031875e-17
4.060326026013005e-17
4.688161946562845e-17
5.515187454031856e-17
6.685422350049303e-17
8.454199912134486e-17
1.1271841416301658e-16
1.5941369780575313e-16
2.388685042732764e-16
3.756594676476831e-16
6.105797385614569e-16
1.0087930874063709e-15
1.671632686640876e-15
2.7555166034980365e-15
4.50545526062077e-15
7.316937713137522e-15
1.1848289632133978e-14
1.9214319191985337e-14
3.129801748386839e-14
5.1215754125454124e-14
8.395851744858582e-14
1.3720644599369222e-13
2.222836665505442e-13
3.552066457900108e-13
5.57821319880212e-13
8.591810151956269e-13
1.2976681028780404e-12
1.925024997170705e-12
2.814667641561311e-12
4.0789854388108155e-12
5.905253791186411e-12
8.63076444983341e-12
1.290227656018225e-11
2.001761795617011e-11
3.265497444437378e-11
5.640326681183234e-11
1.0288614980352153e-10
1.9592715597962047e-10
3.8327781425528664e-10
7.581067671011124e-10
1.4969386531559461e-09
2.9242565407355843e-09
5.618725348645186e-09
1.058203668123446e-08
1.9498591646139807e-08
3.512214084359809e-08
6.183301246476973e-08
1.0641466741736646e-07
1.790975823471142e-07
2.949063866877859e-07
4.753146839706335e-07
7.501504733998456e-07
1.1595922270189828e-06
1.755944442103971e-06
2.604688864227336e-06
3.7841088573410576e-06
5.382658193417827e-06
7.493319845981157e-06
1.0204634478063939e-05
1.3589004777592093e-05
1.7690304049327455e-05
2.2514485273521662e-05
2.8028209486850223e-05
3.4170599882406214e-05
4.088114344581829e-05
4.814199547706217e-05
5.6025982344636144e-05
6.473431990704002e-05
7.460358971457156e-05
8.606329760247223e-05
9.95355910647854e-05
0.00011528671059473612
0.00013326093430672412
0.00015294445720552538
0.0001733105830182838
0.00019288368850696537
0.00020992887870222935
0.00022273557878321596
0.00022992988893143996
0.00023073553006531665
0.00022511383580866312
0.0002137471040400779
0.00019787515170385445
0.00017903595875381754
0.00015878373952412213
0.00013845525816934162
0.00011903112006940672
0.00010110408382993624
8.493446193345966e-05
7.055356393140601e-05
5.787350567573091e-05
4.6772542664238644e-05
3.7142316397268585e-05
2.8899538150166365e-05
2.1974662508926103e-05
1.629264611792002e-05
1.1757614437877525e-05
8.247303516539886e-06
5.61747109495391e-06
3.7128706477072666e-06
2.380257533750975e-06
1.4796541836717345e-06
8.917528558444237e-07
5.210016213156878e-07
2.9508713205501156e-07
1.620600048291341e-07
8.636344636776836e-08
4.4741768345065424e-08
2.2627121376523496e-08
1.126549618242871e-08
5.607075981563305e-09
2.8564503411068275e-09
1.5310630651545527e-09
8.797565617788322e-10
5.401817565424595e-10
3.461801711253588e-10
2.2481540974441665e-10
1.4446480798686514e-10
9.047863896110728e-11
5.4781775917839247e-11
3.194598854105889e-11
1.7922273446129115e-11
9.676593539582687e-12
5.034611186829536e-12
2.5291713242268682e-12
1.2298826503239504e-12
5.807093678226539e-13
2.671886220075138e-13
1.2027876990483475e-13
5.3208615918510685e-14
2.3240180194967834e-14
1.0071808988241076e-14
4.352799537297432e-15
1.8848314605005985e-15
8.208557881052213e-16
3.604613551951418e-16
1.5992688118216567e-16
7.182485821825602e-17
3.250736335323219e-17
1.4412069802522742e-17
5.906025056701501e-18
2.2624036164534605e-18
1.207478828920575e-18
2.1452994870368262e-18
7.8357252901388545e-19
3.339522725704322e-20
3.0562147460844446e-19
1.269641866411117e-18
2.1886784990419345e-18
3.0993853581533375e-18
4.9145271117143586e-18
7.949872896568201e-18
1.0566825585223131e-17
9.49424832010985e-18
3.1180996183824966e-18
6.060054004711443e-18
1.0623543845645987e-16
6.473302907659843e-16
2.7306766844194806e-15
9.457204037485914e-15
2.874925505542898e-14
7.928669987943288e-14
2.0214088803520789e-13
4.821863947548247e-13
1.085552704199296e-12
2.32304229685822e-12
4.756797652842897e-12
9.383486691875126e-12
1.7961349816703606e-11
3.361781035920245e-11
6.201265844166998e-11
1.1361278052089422e-10
2.0822333460567432e-10
3.841595633019831e-10
7.169470971208217e-10
1.3571113953015549e-09
2.6044440220173106e-09
5.047562165571882e-09
9.811429286341184e-09
1.8967699034547514e-08
3.616569280907947e-08
6.75258555399645e-08
1.2279556587975766e-07
2.1670209905679654e-07
3.7036850840935756e-07
6.12618334702281e-07
9.810130931868794e-07
1.5225325173608173e-06
2.2938396461479923e-06
3.360918858806256e-06
4.797385539230823e-06
6.6799443632917625e-06
9.07864169383476e-06
1.2039413969616297e-05
1.5557856080306965e-05
1.954668829024134e-05
2.3804711175532318e-05
2.800037569289525e-05
3.168560375575174e-05
3.435224862286623e-05
3.553320537029185e-05
3.493425692289443e-05
3.256613502103667e-05
2.8835794898643586e-05
2.455759102831398e-05
2.0861217610311836e-05
1.900078007677819e-05
2.010004584464272e-05
2.489240771378471e-05
3.352170154155691e-05
4.545818266709733e-05
5.955568288262495e-05
7.423975085752717e-05
8.778338899669523e-05
9.86064858404839e-05
0.00010553246438817874
0.0001079505371289113
0.00010585868863854059
9.979261553921181e-05
9.067085515807391e-05
7.960028691050556e-05
6.768713074953223e-05
5.588850269533446e-05
4.492324750626261e-05
3.524370329382733e-05
2.7056818438662938e-05
2.0376059424166078e-05
1.508489197282551e-05
1.0996593006239988e-05
7.901289635847444e-06
5.597144446496304e-06
3.9070378944828304e-06
2.684429974194224e-06
1.8125751290978167e-06
1.2005773778891303e-06
7.786121238269337e-07
4.935295398090321e-07
3.052566462449232e-07
1.839779359704579e-07
1.0791685326827374e-07
6.154268753813868e-08
3.4088015308636765e-08
1.83199789242023e-08
9.54160621006861e-09
4.8081304678060505e-09
2.338396556815446e-09
1.093330234625438e-09
4.883257629547478e-10
2.061644755306326e-10
8.085077019645178e-11
2.865200634053081e-11
8.900535404413666e-12
2.631082392156282e-12
1.405103924281704e-12
1.693145252168822e-12
2.1589373122908483e-12
2.3953758308006253e-12
2.3579992725037113e-12
2.1211841440092175e-12
1.7788941114010383e-12
1.4085534814604517e-12
1.0618749950687968e-12
7.667104246833817e-13
5.327832568772197e-13
3.58015386033894e-13
2.339664265996891e-13
1.498442340634012e-13
9.506338733563555e-14
6.059449190474504e-14
3.9445260352294817e-14
2.6605547672901817e-14
1.8723514778102104e-14
1.3697281641657183e-14
1.0290132371431804e-14
7.819071207226174e-15
5.928558490363967e-15
4.440585813953891e-15
3.2639105307919293e-15
2.3443953074274284e-15
1.641203655901161e-15
1.1176002848007633e-15
7.389180174379083e-16
4.732859655938633e-16
2.9284221923477217e-16
1.7448951598669981e-16
9.999005489853744e-17
5.553368626980288e-17
3.101454693395198e-17
1.9231105450944576e-17
1.515721086876881e-17
1.5357979018069704e-17
1.7563511212208366e-17
2.0372810000564052e-17
2.3041297815379353e-17
2.530637060710974e-17
2.722191674387391e-17
2.89971739347014e-17
3.0858030509469756e-17
3.2960654126462534e-17
3.538282100527609e-17
3.8199122820672316e-17
4.162181664388914e-17
4.617466139191233e-17
5.287832527380884e-17
6.34715748995247e-17
8.076675857761968e-17
1.0931671923772724e-16
1.566138472981967e-16
2.3501276686627356e-16
3.644634981151364e-16
5.760436973838738e-16
9.164082469266564e-16
1.45403085832862e-15
2.2900539047046153e-15
3.580286977903351e-15
5.580772980435101e-15
8.737100260076605e-15
1.3845865137618753e-14
2.232244239393065e-14
3.660812722384172e-14
6.073697052822604e-14
1.0105532384902561e-13
1.6704779095982505e-13
2.7218404379222394e-13
4.3468649747415274e-13
6.781674139318339e-13
1.0322491408321976e-12
1.5336479791612016e-12
2.2289545870120547e-12
3.181957306481347e-12
4.492041136340622e-12
6.338786979869102e-12
9.087406933658944e-12
1.3531752426437134e-11
2.14372044584278e-11
3.670948510048008e-11
6.781106856209438e-11
1.3255234821431573e-10
2.6720581484676983e-10
5.431624268414854e-10
1.0962283956531735e-09
2.1763192454268356e-09
4.228912074361163e-09
8.024298315530672e-09
1.4856494019782052e-08
2.684052629525555e-08
4.7344375342376945e-08
8.15992799118974e-08
1.3753769170967098e-07
2.269086361856399e-07
3.6670995153459956e-07
5.80947038714588e-07
9.026666188406318e-07
1.3761094624930721e-06
2.058672447445049e-06
3.0221803291424487e-06
4.35278785632606e-06
6.148756033098373e-06
8.515507496141178e-06
1.1557907035036533e-05
1.5370705526526995e-05
2.0029420166712052e-05
2.5585212728635512e-05
3.206788906958378e-05
3.950015533493317e-05
4.79231239744137e-05
5.7427867426989135e-05
6.818179191917096e-05
8.043412839995435e-05
9.448485517759753e-05
0.00011060815096826149
0.00012893514331177886
0.00014931820317708484
0.00017121432760039036
0.00019363112242991393
0.00021517033963343372
0.000234180527435175
0.00024899804527222553
0.000258225264556494
0.0002609779018618724
0.00025703770604928664
0.0002468719726448934
0.00023151921123274613
0.0002123773959007884
0.0001909547632841189
0.00016864599432872923
0.00014657996268191623
0.0001255572310510276
0.00010606729672950959
8.83566120331959e-05
7.251292218908317e-05
5.853802688157954e-05
4.639431287008714e-05
3.6024001545795785e-05
2.7349344941852183e-05
2.0265245429371016e-05
1.4633909862866997e-05
1.0286603331185285e-05
7.032869945675862e-06
4.674419018939197e-06
3.0197686461941957e-06
1.8963187174218785e-06
1.1579853635326155e-06
6.880804388256656e-07
3.982537110293439e-07
2.2485716515294813e-07
1.241166410579139e-07
6.720217508567564e-08
3.587870628120797e-08
1.9040645092859617e-08
1.0161067239769567e-08
5.532322576300668e-09
3.117106270352924e-09
1.8324026949435037e-09
1.1210528342753907e-09
7.048788143549378e-10
4.4773333819961374e-10
2.8268735711319825e-10
1.752303451920446e-10
1.057709547407226e-10
6.186763880394672e-11
3.497913315670859e-11
1.9098588598711928e-11
1.0071858493057815e-11
5.135046103249764e-12
2.535041876371586e-12
1.2143537473397988e-12
5.659242511517245e-13
2.5738646389515497e-13
1.1466987902053392e-13
5.026863910456251e-14
2.1801646880450363e-14
9.415725570296243e-15
4.0795030525053745e-15
1.7866179260682733e-15
7.959574572031585e-16
3.6198869685633597e-16
1.6783018185375442e-16
7.864500612054172e-17
3.6642829533030944e-17
1.6790520757765496e-17
7.82731095492318e-18
4.0287070686632525e-18
5.600580166720454e-18
2.231631605553634e-18
8.412946808127785e-19
8.658823951553287e-19
1.1970369772068561e-18
1.0382570490853548e-18
8.1734950911147575e-19
1.5506927648154255e-18
3.3861438071281927e-18
5.309086143526047e-18
6.258314768641902e-18
6.83596747216154e-18
1.5415789590893144e-17
7.469141926149039e-17
3.4950505459208213e-16
1.373241401945629e-15
4.6738103887849026e-15
1.423734766620856e-14
3.967115689559433e-14
1.0255705181865002e-13
2.484193089722746e-13
5.681537567873909e-13
1.2353099073350797e-12
2.5711488046127744e-12
5.162318384264943e-12
1.008507404491899e-11
1.9351158245792405e-11
3.681288283244971e-11
7.000655647728742e-11
1.3389599161637722e-10
2.5844850081880687e-10
5.038800988016279e-10
9.909133431595053e-10
1.959247794923508e-09
3.876005805462614e-09
7.626271015726504e-09
1.4826703174025256e-08
2.8304350720419063e-08
5.2768195193156155e-08
9.566520662759113e-08
1.6816016484492937e-07
2.861301598211334e-07
4.7105644742931967e-07
7.507603255471048e-07
1.160056389734339e-06
1.741493386863781e-06
2.5462361727895344e-06
3.6346062638477117e-06
5.074778704114262e-06
6.9369115774419475e-06
9.279302674179721e-06
1.2124076580337767e-05
1.5423266221856776e-05
1.9021907992000272e-05
2.263135178326715e-05
2.5830355980548965e-05
2.8110155926951516e-05
2.8970282465764566e-05
2.80552317526973e-05
2.5302745730851026e-05
2.105987525338776e-05
1.612065232737295e-05
1.1653180615613425e-05
9.012407164914046e-06
9.469757203070434e-06
1.3920564086080035e-05
2.264387871388616e-05
3.51808903687818e-05
5.036939948032058e-05
6.65311510118748e-05
8.176890783484355e-05
9.430297038171202e-05
0.00010276995889209162
0.00010642086295892748
0.00010518494589941439
9.960129411457793e-05
9.065024869602576e-05
7.953496319659333e-05
6.746591421389542e-05
5.5490287800281896e-05
4.438923595598773e-05
3.46457295210328e-05
2.6469763678198987e-05
1.9859106797552922e-05
1.4672855621863004e-05
1.0699792049856014e-05
7.710943752428234e-06
5.493034039536655e-06
3.8648348253786104e-06
2.681171627638432e-06
1.8297939287893805e-06
1.2253464131280117e-06
8.03144746666949e-07
5.140314157114789e-07
3.2059211519957323e-07
1.9450079330323517e-07
1.1461720009124697e-07
6.552071055765677e-08
3.629041966776059e-08
1.9451906981261442e-08
1.00756250907191e-08
5.0338119058920276e-09
2.4188543689826994e-09
1.112839258577668e-09
4.863906242426866e-10
1.9915236331373558e-10
7.437177831110329e-11
2.3949466005413168e-11
5.7873632934519195e-12
6.476738871820277e-13
1.7212313297394347e-13
9.58759979515017e-13
1.7627505436699798e-12
2.2294895099893483e-12
2.3437222705037044e-12
2.1987004589436906e-12
1.903465580346907e-12
1.5487065970638978e-12
1.1975276429855632e-12
8.868258584400272e-13
6.328349668494962e-13
4.376580757636138e-13
2.9517128700579435e-13
1.9557835382023768e-13
1.2846360466341654e-13
8.45231525231177e-14
5.6304457057072265e-14
3.8304878889238846e-14
2.672542266571752e-14
1.909198316706145e-14
1.3873800007764033e-14
1.016326914088236e-14
7.437182686093714e-15
5.3945657580010616e-15
3.8554365237942774e-15
2.7026952668623444e-15
1.851669223295851e-15
1.2357342259885885e-15
8.00287028008655e-16
5.004400470486075e-16
2.9998637207396337e-16
1.7054428116525312e-16
9.054243569357947e-17
4.40567842716368e-17
1.962575800683009e-17
9.168935882244297e-18
7.088126632117596e-18
9.577079014102247e-18
1.41236962172806e-17
1.9162308229566524e-17
2.3823985095089224e-17
2.7738558439679502e-17
3.085937786445173e-17
3.3304745804129446e-17
3.5230373208639614e-17
3.6757257669261625e-17
3.797476299305089e-17
3.9021271954277066e-17
4.022343688476492e-17
4.22632217730151e-17
4.635234897563311e-17
5.4431354488252126e-17
6.946586462933268e-17
9.595987623728693e-17
1.4080762969076226e-16
2.1453142578924984e-16
3.328094652889433e-16
5.180727353360091e-16
8.010547977947668e-16
1.2228756506938383e-15
1.840023351921787e-15
2.737982383968563e-15
4.0645636860942274e-15
6.100979932282617e-15
9.396142031116088e-15
1.4994891302543976e-14
2.478979462364254e-14
4.2013642436346674e-14
7.186138681532673e-14
1.221844616162466e-13
2.041417474497528e-13
3.326328110849074e-13
5.263032726051804e-13
8.06935278902574e-13
1.1981844140366404e-12
1.7240547438497823e-12
2.4086244974027983e-12
3.281363935163641e-12
4.3992406037087104e-12
5.9124805641940204e-12
8.234438986872988e-12
1.2443444203710066e-11
2.1171606527934732e-11
4.0461774492585446e-11
8.345515379090739e-11
1.7738374591800892e-10
3.762787324454144e-10
7.831818655896253e-10
1.5875911188153424e-09
3.12652566073865e-09
5.981109498820036e-09
1.1125107051393686e-08
2.0147559179193745e-08
3.557869708495099e-08
6.135664656853385e-08
1.0348164848480875e-07
1.7091319148285928e-07
2.767702189354587e-07
4.39888930703071e-07
6.867661131110978e-07
1.0538544608629493e-06
1.590066670353849e-06
2.359183535928269e-06
3.4416680214161866e-06
4.93522133810147e-06
6.953382541012042e-06
9.621702083266424e-06
1.3071618732121323e-05
1.7433130328187567e-05
2.2828451701976654e-05
2.9369616210833986e-05
3.716273347392006e-05
4.631976135531683e-05
5.697504099636965e-05
6.929919050257934e-05
8.349896979194618e-05
9.97907906783476e-05
0.00011833977625710081
0.00013916629997517464
0.00016203586929483212
0.00018636154486811977
0.00021115488639787997
0.00023505675847674743
0.00025646189719826906
0.0002737247785301518
0.00028540743602868766
0.000290512460704982
0.0002886439458327676
0.0002800570352809241
0.00026558733014923224
0.0002464840549847528
0.00022419431647042331
0.00020015272304312572
0.00017562046232211741
0.00015159635497118346
0.00012879843948451156
0.0001076966380856302
8.856958415085114e-05
7.15615674342974e-05
5.672496279065718e-05
4.4044347180109125e-05
3.344664152748009e-05
2.4805133388483338e-05
1.7944498171878637e-05
1.2650703019214428e-05
8.686002871851782e-06
5.806619471050058e-06
3.779724655419095e-06
2.3968319312675027e-06
1.482005170632738e-06
8.947368999506952e-07
5.284456803944716e-07
3.0609060016319637e-07
1.7443800751941047e-07
9.821240286636137e-08
5.491997860714125e-08
3.070832713124618e-08
1.7308419655616997e-08
9.919180765485782e-09
5.8215962617047995e-09
3.510389283728442e-09
2.169228984228807e-09
1.362802194245422e-09
8.608937908255335e-10
5.40699330201472e-10
3.344016970514668e-10
2.0217724374185953e-10
1.1890013455883098e-10
6.780513866308237e-11
3.7430659876348816e-11
1.9988452744286086e-11
1.0326450047057813e-11
5.164542578006586e-12
2.5033647481355788e-12
1.177972417796829e-12
5.392721717432204e-13
2.408852678716031e-13
1.0541446992362321e-13
4.545474107380126e-14
1.9470511424233852e-14
8.375228748935486e-15
3.664068589646874e-15
1.6498485040245027e-15
7.697991918756854e-16
3.7148985746722394e-16
1.8349876911283867e-16
9.149943563043784e-17
4.57045176714326e-17
2.3000210364065856e-17
1.1660592128892683e-17
1.7059155186006306e-17
8.338730145031434e-18
4.393947684076891e-18
2.8951808720539243e-18
1.8934071308504317e-18
7.0135834811080965e-19
1.918528322051666e-20
5.814903285138961e-19
2.011821817851139e-18
3.417944341267159e-18
4.75633725823216e-18
7.61664265202576e-18
1.7961598161217946e-17
5.957821541431637e-17
2.17921728349199e-16
7.631985315316359e-16
2.4700008185804698e-15
7.382730881292735e-15
2.0502930412445894e-14
5.3236070340345767e-14
1.2997130514764945e-13
2.999647447154963e-13
6.58139937621211e-13
1.381842899114138e-12
2.799486203067295e-12
5.528890857394364e-12
1.0772217194461477e-11
2.095646995739119e-11
4.1111910383326655e-11
8.177994462390834e-11
1.6502099152782374e-10
3.365773447321248e-10
6.899238560182097e-10
1.4123530624639098e-09
2.869624104481177e-09
5.753266339653378e-09
1.1320622516796648e-08
2.17568884157544e-08
4.0674029600587543e-08
7.372934948957654e-08
1.293021987702847e-07
2.1913335405035862e-07
3.588468465648879e-07
5.683754140797592e-07
8.72492937641872e-07
1.301823896963408e-06
1.8946443824699984e-06
2.699255244113401e-06
3.7755587857311137e-06
5.192925363091104e-06
7.0202391638469915e-06
9.304340866343363e-06
1.2036068642152827e-05
1.510902386683561e-05
1.8283741762429482e-05
2.117604784729897e-05
2.32890146512371e-05
2.4099964979171667e-05
2.3197242393677665e-05
2.044006751365697e-05
1.6096444723014216e-05
1.0907479186079179e-05
6.037444127048896e-06
2.8971902814534317e-06
2.866569090073042e-06
6.976984997214454e-06
1.5635063406402e-05
2.8464417321378755e-05
4.431441521188408e-05
6.144092249761509e-05
7.781794123378176e-05
9.150520636036678e-05
0.0001009850152242258
0.00010539424629625294
0.00010460922641790679
9.91810045853438e-05
9.015448000104343e-05
7.882717795693549e-05
6.650807165321936e-05
5.4325396464120796e-05
4.311099046355297e-05
3.336514838608969e-05
2.5287095011267005e-05
1.884586408083963e-05
1.3865081238028068e-05
1.0100657797642041e-05
7.299178981876547e-06
5.233445643921045e-06
3.7179644356451546e-06
2.6103774854486564e-06
1.8052580926698052e-06
1.2253855543260055e-06
8.136458937133241e-07
5.269018341686079e-07
3.3194284752012735e-07
2.03020589511915e-07
1.2034439549709432e-07
6.904035620384946e-08
3.828423023440936e-08
2.049441592228433e-08
1.0576753157017173e-08
5.253163190371955e-09
2.504850664591592e-09
1.1422927919266068e-09
4.949850514286688e-10
2.014304664805154e-10
7.526790919328289e-11
2.4672056842480557e-11
6.426426906859262e-12
1.1253541114526359e-12
4.786568471609512e-13
1.1467616578389823e-12
1.898002481234744e-12
2.3596003337858564e-12
2.490290649821973e-12
2.3630107217589804e-12
2.0760369016740596e-12
1.7173092474883386e-12
1.351959350553832e-12
1.0207729492073418e-12
7.438458124061245e-13
5.262228770938417e-13
3.6359475125261916e-13
2.470090739064941e-13
1.662083093517926e-13
1.116392396808988e-13
7.540712131766513e-14
5.151512803953761e-14
3.569748454290627e-14
2.5077177284953146e-14