# vtk DataFile Version 4.1 
COMMENT
ASCII
DATASET STRUCTURED_POINTS 
DIMENSIONS 300 300 1 
ORIGIN 0 0 0
SPACING 0.020943951023931952 0.020943951023931952 0 
POINT_DATA 90000
SCALARS U double 1
LOOKUP_TABLE default
3.8106585540863546e-19
1.0926903789418538e-18
2.628420824101227e-18
5.883805150783633e-18
1.324635606668616e-17
2.9694429952554046e-17
6.566103502906587e-17
1.438960964085449e-16
3.1380466000218844e-16
6.809151623148356e-16
1.46851608269703e-15
3.1465733709196153e-15
6.698141044799816e-15
1.4161862162401211e-14
2.9716847850917404e-14
6.179918176686343e-14
1.2709544668607037e-13
2.5775648856223854e-13
5.137196718291402e-13
1.0023049104436408e-12
1.906627387825526e-12
3.5220665591864035e-12
6.2960753520530596e-12
1.0864398803538199e-11
1.8087707944653772e-11
2.9141493457894654e-11
4.583674298509471e-11
7.158181629847766e-11
1.1370977376517062e-10
1.8811075109151943e-10
3.268083044483299e-10
5.876986083226966e-10
1.062742111877616e-09
1.8771910046210947e-09
3.171074184816557e-09
5.061544062902477e-09
7.609735490286172e-09
1.0866463521730887e-08
1.514870376777727e-08
2.1793108086584982e-08
3.472267126223745e-08
6.322529016398151e-08
1.2636823582048497e-07
2.594707568844138e-07
5.230451039903488e-07
1.0145772790563832e-06
1.8833505806756645e-06
3.3480070438676897e-06
5.715426431808356e-06
9.39760185905229e-06
1.4920631298844215e-05
2.291734424766468e-05
3.409359436657391e-05
4.9159334817861954e-05
6.872051542922703e-05
9.313696386816434e-05
0.00012236357102794867
0.0001558043720262904
0.00019221729162700556
0.00022970714644183788
0.0002658333477099403
0.0002978371697363569
0.00032296573469303393
0.0003388432393834774
0.00034382242465498455
0.00033724692370565946
0.0003195697847080686
0.0002923019869394457
0.00025779991047838855
0.00021893343891298098
0.00017869860345965223
0.0001398455674641416
0.00010458376072606611
7.440461629385708e-05
5.003487346006153e-05
3.1506839471536975e-05
1.8312303376385625e-05
9.59741945923565e-06
4.357200626417393e-06
1.597933942021232e-06
4.4985297252987803e-07
2.265197930888571e-07
4.3829564376513404e-07
7.733810102567085e-07
1.061238048963363e-06
1.2310231493975733e-06
1.2736884118694543e-06
1.2122297429732384e-06
1.0811975452897164e-06
9.144556699224022e-07
7.392063370723805e-07
5.741688119727539e-07
4.3013217793865323e-07
3.115962970905272e-07
2.1868590602722015e-07
1.4889050306792236e-07
9.843426436205223e-08
6.323442793523578e-08
3.949023938533215e-08
2.3981402293304498e-08
1.4162765809293274e-08
8.13321007674188e-09
4.540064543309465e-09
2.4618536012340977e-09
1.295428994996585e-09
6.605003099251342e-10
3.2567735258956277e-10
1.5493014768392106e-10
7.094719906034664e-11
3.1253269864179964e-11
1.3311174457105171e-11
5.596371500502396e-12
2.4506515136444096e-12
1.2233568718279247e-12
7.417859045926429e-13
5.243624488594729e-13
3.9312712690337714e-13
2.9246865517525903e-13
2.0977737854805726e-13
1.4390161366438676e-13
9.453974933178962e-14
5.990462895427141e-14
3.708549285891436e-14
2.2897705123158058e-14
1.4506662214736286e-14
9.713538674629089e-15
6.987968766875697e-15
5.363873821210376e-15
4.288651696376965e-15
3.479463166590639e-15
2.8105278168917243e-15
2.2361614719383253e-15
1.74444087972701e-15
1.3329938059681843e-15
9.98696618843074e-16
7.349304690466849e-16
5.322077579678768e-16
3.797906359461801e-16
2.6717986341720903e-16
1.8509501961649211e-16
1.259328330661469e-16
8.382621212004245e-17
5.4447634253898286e-17
3.467968158086573e-17
2.2248426800662753e-17
1.5392613740677236e-17
1.262086557226256e-17
1.258541428246486e-17
1.407244140081586e-17
1.607992872040163e-17
1.793171156097491e-17
1.9368995077786557e-17
2.0571644101825546e-17
2.2088356361068447e-17
2.468864138069183e-17
2.9178574879757727e-17
3.623587494090479e-17
4.6311886480823826e-17
5.961902945680892e-17
7.617925511548562e-17
9.586476696785066e-17
1.183336227218639e-16
1.4276928538230581e-16
1.6739402269538597e-16
1.8885608812526078e-16
2.0179496757388041e-16
1.9915978200392855e-16
1.7417584598511127e-16
1.2521121019451116e-16
6.520804504529729e-17
3.7894698898948195e-17
1.4384737274349468e-16
5.808598670118174e-16
1.7052478226444432e-15
4.1237994171262994e-15
8.830004698044355e-15
1.7402612782163054e-14
3.228908989785906e-14
5.720134994749897e-14
9.765805867224988e-14
1.6172196364110327e-13
2.6101185019270554e-13
4.1213152149513735e-13
6.387692198256199e-13
9.748901882259778e-13
1.4696609534846645e-12
2.1949555342198193e-12
3.2564133010902985e-12
4.809010706641367e-12
7.0783463742665436e-12
1.0391128932354649e-11
1.5228532607126072e-11
2.234991625625927e-11
3.313006813931569e-11
5.049572841614078e-11
8.141334449971159e-11
1.431133692079929e-10
2.777622860414349e-10
5.851732833178997e-10
1.2920437133805908e-09
2.891487208529109e-09
6.411227006369812e-09
1.3905618451937942e-08
2.9317039878367386e-08
5.991335814972633e-08
1.1856938039729704e-07
2.2719822207094097e-07
4.216141790691667e-07
7.579673518262262e-07
1.3205703082917285e-06
2.2303901728261152e-06
3.652703991589719e-06
5.801497605146184e-06
8.937339820667553e-06
1.3355029219331583e-05
1.9357723541756658e-05
2.7215924495300284e-05
3.7112791548987915e-05
4.908155884100399e-05
6.294551734542471e-05
7.82747317148617e-05
9.437473358313005e-05
0.00011031945566487957
0.00012503312838179354
0.00013741469080010403
0.00014648601448330502
0.00015153558760484887
0.0001522259958240544
0.00014863893273293604
0.00014124533498887582
0.0001308072536976428
0.00011823655309567967
0.00010444719669479725
9.02382343707552e-05
7.623289967200488e-05
6.287920880535883e-05
5.049628868648607e-05
3.933630796205314e-05
2.96298499212623e-05
2.159345761169582e-05
1.5397148902513283e-05
1.1108756085522293e-05
8.642928418256341e-06
7.741187229684433e-06
7.996753138463103e-06
8.919989497311562e-06
1.0025060774965589e-05
1.0911792855745665e-05
1.1320433377460449e-05
1.1148214008167621e-05
1.042986920184999e-05
9.294301360081042e-06
7.913499092234572e-06
6.4577424220117805e-06
5.065402218870306e-06
3.829249798776039e-06
2.7964081429122516e-06
1.9768240029967637e-06
1.355140810992741e-06
9.021917249005027e-07
5.840511328819679e-07
3.680314542697246e-07
2.2592696077433743e-07
1.3521038521828343e-07
7.893773172559049e-08
4.498317516691298e-08
2.5036169588778975e-08
1.361813127524628e-08
7.244449986872261e-09
3.771935436201003e-09
1.923710138761563e-09
9.61752815147653e-10
4.716497181221357e-10
2.2699592232854317e-10
1.0725204154517512e-10
4.976718110073395e-11
2.2697030369351716e-11
1.0191287402671988e-11
4.519434947361076e-12
1.9885182063306413e-12
8.725986213339743e-13
3.8333786156719663e-13
1.6858096845573742e-13
7.382034978004296e-14
3.186718434221127e-14
1.3396750221731994e-14
5.4226927497997895e-15
2.0987390085046617e-15
7.783701152464585e-16
2.8184905240346064e-16
1.0406324007530473e-16
4.1863232894482543e-17
1.929334235037002e-17
9.790293304385692e-18
4.807131552876505e-18
2.0834636223394136e-18
9.603702826299415e-19
6.722731267182826e-19
4.831497059797286e-19
2.6917358499678487e-19
8.10880124114596e-20
4.199797775626134e-19
8.709903381537596e-19
1.863863583520188e-18
4.482046314013845e-18
1.053749866239562e-17
2.3917991636977665e-17
5.398794929268144e-17
1.221504413786097e-16
2.7548269601129454e-16
6.16900053298616e-16
1.3710114944794548e-15
3.0244561418560944e-15
6.620156940891726e-15
1.4364125315991877e-14
3.084845622697112e-14
6.544367981247349e-14
1.368087341901009e-13
2.8102025414965534e-13
5.65462022693959e-13
1.111123312000703e-12
2.1260218696543143e-12
3.9521407462390664e-12
7.129283284531421e-12
1.2487642161998665e-11
2.1310196905810946e-11
3.567750174131071e-11
5.923819379382863e-11
9.881592983372309e-11
1.6733959810446304e-10
2.8826907653532874e-10
5.005386303894945e-10
8.607457397699569e-10
1.4363839974189963e-09
2.2826748046333044e-09
3.400862463968253e-09
4.6945579328491625e-09
5.9789153699253926e-09
7.155773761267272e-09
8.737926407084868e-09
1.2971276923647193e-08
2.5850586091799444e-08
6.035483313708568e-08
1.4126776585832828e-07
3.1203329386320726e-07
6.442250352108723e-07
1.25029163461695e-06
2.300048825957455e-06
4.040597039602223e-06
6.817646956611326e-06
1.1093572478805875e-05
1.745428957575902e-05
2.6594291570669277e-05
3.9268380547496215e-05
5.62014647089074e-05
7.79553329557928e-05
0.00010476332313192061
0.00013635811078065906
0.00017183041503094262
0.00020956220355490332
0.0002472726314125538
0.000282196806419872
0.00031138899974296236
0.00033210977112485914
0.0003422298475117214
0.00034057124961940345
0.0003271132627589945
0.00030301684843592105
0.0002704596230648768
0.0002323143522041102
0.00019173618208583054
0.00015173946679664284
0.00011484100249600313
8.282529394197458e-05
5.6656085043488244e-05
3.6525697379218365e-05
2.2007891573387195e-05
1.2266188577983555e-05
6.269052681761904e-06
2.9735399951959233e-06
1.4551263226555133e-06
9.781339738408832e-07
1.0143070250195952e-06
1.2245246911797071e-06
1.42039039850967e-06
1.5199831840512102e-06
1.507496712997788e-06
1.4017035346402976e-06
1.2343847913216036e-06
1.0375205788364337e-06
8.370309712006082e-07
6.507874666945812e-07
4.890306862085888e-07
3.5588756939199485e-07
2.5118262504208806e-07
1.7210921513198646e-07
1.1456901768214236e-07
7.41312215706771e-08
4.664067702922876e-08
2.854090106346618e-08
1.6989302777830962e-08
9.83808853504781e-09
5.541766942947478e-09
3.036076688238933e-09
1.6172664323029955e-09
8.373501661298154e-10
4.2129101298967935e-10
2.0601513449220038e-10
9.806205902602283e-11
4.563578000959151e-11
2.0982274641648815e-11
9.734534350014313e-12
4.7194438644203436e-12
2.4919827432058757e-12
1.4667780131198761e-12
9.482335582262544e-13
6.467481482574389e-13
4.4776538815827717e-13
3.070447132556429e-13
2.061526836717856e-13
1.3517428849121064e-13
8.688175176453935e-14
5.5233788344299044e-14
3.521446152057545e-14
2.2899126934858878e-14
1.5427365398818534e-14
1.0857800534684643e-14
7.961644643523126e-15
6.012698508641293e-15
4.609372199988876e-15
3.5421923190839046e-15
2.7053605700900332e-15
2.043574060508423e-15
1.5234595434192637e-15
1.1202204811485125e-15
8.125563289858391e-16
5.814089491867977e-16
4.100640521584175e-16
2.8445139147419364e-16
1.9323747530351706e-16
1.2765987945939183e-16
8.117769284809547e-17
4.9029909354392404e-17
2.7775564459362605e-17
1.486956994584214e-17
8.314661723171028e-18
6.418614409636332e-18
7.67070477420884e-18
1.0730034706293305e-17
1.4494321238521067e-17
1.8198917447926863e-17
2.149024850493851e-17
2.442973437691293e-17
2.7411361560987926e-17
3.1009855914324646e-17
3.580500686246445e-17
4.224003691838876e-17
5.056165547198316e-17
6.085727880687317e-17
7.315896370080655e-17
8.753826615200577e-17
1.0408991706580355e-16
1.2271427244507728e-16
1.4267509467966679e-16
1.6203813564563274e-16
1.7728194336741118e-16
1.8359599268133134e-16
1.7661650643038393e-16
1.5658304620818768e-16
1.36156731501237e-16
1.5352615143974708e-16
2.9313741938524266e-16
7.17701610216834e-16
1.7173592437146656e-15
3.785231101924788e-15
7.733050422414727e-15
1.48658495028538e-14
2.7240256186704315e-14
4.803651414928781e-14
8.208044751825602e-14
1.3656061096772216e-13
2.2200245365037807e-13
3.535913340639721e-13
5.529821751826379e-13
8.507843751117049e-13
1.2899242824241296e-12
1.9299700839449786e-12
2.8521021286696526e-12
4.163574281163434e-12
5.999359339779611e-12
8.518401204010502e-12
1.1896826945049603e-11
1.6342737725137905e-11
2.222671712705476e-11
3.060638984339836e-11
4.4863484935339953e-11
7.514492659903259e-11
1.493146274471496e-10
3.3805401103558837e-10
8.08987675746972e-10
1.9372758270837437e-09
4.520603353488462e-09
1.0177649068876333e-08
2.2052725768903433e-08
4.600410525581802e-08
9.251214521408259e-08
1.7958812722549652e-07
3.3696438070751765e-07
6.117548395579305e-07
1.0755370945053623e-06
1.8323717273784876e-06
3.026622985889959e-06
4.8486244435133395e-06
7.535395054113147e-06
1.1363027943227128e-05
1.6627420377175116e-05
2.3611081745515977e-05
3.253611179174275e-05
4.3507032117475544e-05
5.645144697046115e-05
7.10704387993282e-05
8.681272421274992e-05
0.00010288547397066209
0.00011830948782505934
0.00013201741606869329
0.0001429826988386261
0.0001503568771349912
0.00015358740702511015
0.00015248980186098295
0.00014725753219825197
0.00013840857563846782
0.000126684291402686
0.0001129287443456073
9.798005116790568e-05
8.259811560154868e-05
6.743766425736822e-05
5.305766155307247e-05
3.9945109215085216e-05
2.852832519419327e-05
1.916322011937376e-05
1.209205076846299e-05
7.390403904458826e-06
4.927328338360802e-06
4.361401838937129e-06
5.183075575546753e-06
6.796480842940996e-06
8.619472503178434e-06
1.0174829846632826e-05
1.1149905623379276e-05
1.1413823074822124e-05
1.0995127729342928e-05
1.0033261284133239e-05
8.721326961652865e-06
7.25542950458318e-06
5.7997804843246574e-06
4.4698861813623335e-06
3.330912177854472e-06
2.4057825346521682e-06
1.6874702821547336e-06
1.151313188637447e-06
7.650130477968571e-07
4.95536054969524e-07
3.131306694899778e-07
1.9313543668373845e-07
1.1632809297964908e-07
6.84507513845997e-08
3.936710015008111e-08
2.213921008525065e-08
1.2181629166496315e-08
6.561950234226801e-09
3.462854728245435e-09
1.7914441960294012e-09
9.091228308404462e-10
4.528539660517165e-10
2.215537332881688e-10
1.0654011017368892e-10
5.0412647615226554e-11
2.3512139202985917e-11
1.0834690557678399e-11
4.947596594199075e-12
2.2452465636898944e-12
1.0142719166518872e-12
4.558240084435241e-13
2.0309122969999255e-13
8.918923186716241e-14
3.8349403684818566e-14
1.605763112849053e-14
6.537599616194919e-15
2.602064691777821e-15
1.028132559021093e-15
4.138766905721267e-16
1.7481042947621908e-16
7.855124628841852e-17
3.6761075954463753e-17
1.711031525221089e-17
7.752636791852287e-18
3.56061593960659e-18
1.6439077464516839e-18
5.680099369250415e-19
4.424591518669299e-20
2.7499148074457085e-19
2.8915738154443666e-19
2.305382284363644e-19
4.956548539071634e-19
1.5376781773034683e-18
3.7277604506706066e-18
8.352850376541891e-18
1.9338896323887904e-17
4.5780824039385976e-17
1.0770960482900951e-16
2.5042051409693954e-16
5.770584200736268e-16
1.3197487985261621e-15
2.9936359441574277e-15
6.726420683274627e-15
1.4947805620858413e-14
3.279242657247466e-14
7.086489190121295e-14
1.5049164076009828e-13
3.132841294086752e-13
6.377666760697626e-13
1.26696321824021e-12
2.4523471577741052e-12
4.622412277175194e-12
8.491464803225816e-12
1.5243121412571894e-11
2.68643595674853e-11
4.677723031731701e-11
8.099692480051053e-11
1.400455631725846e-10
2.4155955455937487e-10
4.1262726410376947e-10
6.891594429560201e-10
1.107403542405669e-09
1.681800119387069e-09
2.367414500263356e-09
3.01930220374446e-09
3.3897241487425186e-09
3.246911593842119e-09
2.748518791660495e-09
3.246147749420291e-09
8.725947439450824e-09
2.8114540964755948e-08
7.873631917604696e-08
1.913475113952776e-07
4.174142428414334e-07
8.395727074044389e-07
1.586293726260325e-06
2.851321864310969e-06
4.917089484529255e-06
8.178799126375142e-06
1.3162405598382178e-05
2.052609231687782e-05
3.103244003187365e-05
4.547914746827487e-05
6.458154043175277e-05
8.881087233720936e-05
0.00011820742367640607
0.0001522032331627476
0.00018950065583406238
0.00022805414566916713
0.0002651898199718162
0.0002978706109247192
0.00032307938080113237
0.0003382577739201106
0.00034171576651783193
0.00033292441799845043
0.00031262498902890446
0.00028272688805436563
0.0002460142862310514
0.00020572350343275877
0.00016507891289145967
0.00012687796823784628
9.319684332500169e-05
6.525413749159252e-05
4.343168393205639e-05
2.7419181277711025e-05
1.6430419351426783e-05
9.435663554253375e-06
5.36489409900985e-06
3.254499223020953e-06
2.3292803698052396e-06
2.027075360038914e-06
1.982235562492191e-06
1.9864759031255467e-06
1.942965879247278e-06
1.8244020822675616e-06
1.6404183709843492e-06
1.4154689342857915e-06
1.1757803833849067e-06
9.429517360929096e-07
7.317922543913425e-07
5.504986173660889e-07
4.018942225041826e-07
2.8497599575509724e-07
1.9637521281851362e-07
1.3155737430296116e-07
8.570759501251176e-08
5.431277705109667e-08
3.348550742974267e-08
2.0089827178091567e-08
1.1731589207730488e-08
6.669718815087874e-09
3.69285234174102e-09
1.992074280018875e-09
1.0476790950336057e-09
5.378055583335371e-10
2.7001038522619563e-10
1.3307178175061944e-10
6.479677135756173e-11
3.1514115412392904e-11
1.556562393657315e-11
7.978460675184437e-12
4.333632556890429e-12
2.5206144654754804e-12
1.560029163042734e-12
1.00794891334205e-12
6.652036002378581e-13
4.4079625130553724e-13
2.902925867365281e-13
1.8924698891167707e-13
1.2227151877698688e-13
7.871090750020778e-14
5.09115546339766e-14
3.3414994601362315e-14
2.2446884993221227e-14
1.5503832459378786e-14
1.0998508384749481e-14
7.967194704968738e-15
5.845661457588404e-15
4.3104364561408086e-15
3.174961549149462e-15
2.326861645025524e-15
1.6929962891544596e-15
1.2215067542824046e-15
8.732413064042379e-16
6.17797059797018e-16
4.3154941917973793e-16
2.9641140334220976e-16
1.9882686848561427e-16
1.2885790606541056e-16
7.93561312213129e-17
4.523448795241485e-17
2.285127015497156e-17
9.511939450384636e-18
3.0933718487489113e-18
1.794736580142126e-18
4.0131121275861845e-18
8.327991397310915e-18
1.356058840087136e-17
1.8859065927303263e-17
2.3757583432112814e-17
2.816980182323378e-17
3.230422463568582e-17
3.65213247888188e-17
4.1179156580882316e-17
4.6524200506150744e-17
5.267147390474779e-17
5.968378135277482e-17
6.771354606930809e-17
7.71275050675453e-17
8.851357632377988e-17
1.0248846504201457e-16
1.1929611211096819e-16
1.383116448522838e-16
1.5772897759779914e-16
1.748851650783709e-16
1.8783038501413564e-16
1.9887633628049863e-16
2.209835008918866e-16
2.8809459584271385e-16
4.711013729006219e-16
9.023440954218872e-16
1.8137139843024443e-15
3.596805864460033e-15
6.8981876488631195e-15
1.2768439356001219e-14
2.28895894304742e-14
3.991126242686468e-14
6.7930869607665e-14
1.1315784523969768e-13
1.8480714697892652e-13
2.962727210798221e-13
4.666309698502665e-13
7.224948047270131e-13
1.100125471342062e-12
1.647404757332359e-12
2.4246065000430446e-12
3.5017000250400475e-12
4.948178312340796e-12
6.809956164680797e-12
9.069959645619777e-12
1.1603925115895106e-11
1.4193828020930068e-11
1.6800933739527122e-11
2.0639885645990888e-11
3.135436585988253e-11
6.718158661626139e-11
1.7811556482762923e-10
4.878814845339738e-10
1.2807102190307275e-09
3.1717014171912593e-09
7.425509006601075e-09
1.652517484065421e-08
3.5141063532332103e-08
7.170424041284749e-08
1.4083647615224442e-07
2.6690608184717337e-07
4.889274183216761e-07
8.668537723562628e-07
1.4889789524887667e-06
2.479631820934808e-06
4.005637625592591e-06
6.2792296131489166e-06
9.554429551350795e-06
1.411368549681477e-05
2.0242121104584948e-05
2.81884172913379e-05
3.811420238412645e-05
5.003757859467815e-05
6.37802907813129e-05
7.893085626386438e-05
9.483637463525242e-05
0.00011063268193806398
0.00012531580249184395
0.00013784831911894244
0.00014728461974638257
0.00015289202410303759
0.00015424334680231235
0.00015126190041193756
0.00014421138981810034
0.00013363732552878566
0.00012027875613626435
0.00010497483070368419
8.858768234762388e-05
7.195252993511973e-05
5.5852149527128845e-05
4.100197444680592e-05
2.802899968451507e-05
1.7433910215021733e-05
9.538560050338824e-06
4.43398703152483e-06
1.9510071187252426e-06
1.6722743525350576e-06
2.992360169975219e-06
5.21604828821267e-06
7.671644717516099e-06
9.8111754548196e-06
1.1274471525093535e-05
1.1906577150430493e-05
1.1732251128860412e-05
1.090217285818203e-05
9.629706511047005e-06
8.134733631825913e-06
6.604564289847762e-06
5.174548546511525e-06
3.925336614901243e-06
2.890934028125558e-06
2.071540093385423e-06
1.4466286631184662e-06
9.857058189034893e-07
6.558706198324288e-07
4.2638171056291887e-07
2.709152476122375e-07
1.6827635040315183e-07
1.0220139083968123e-07
6.070701621782757e-08
3.5278126310230264e-08
2.0064707179338836e-08
1.1174726935171671e-08
6.097718951017639e-09
3.262103241804598e-09
1.7120519559945182e-09
8.821247664193067e-10
4.4655240658920766e-10
2.223017476430708e-10
1.0895511248245117e-10
5.2654718650539905e-11
2.5136377827770915e-11
1.1876584351738005e-11
5.563239851008795e-12
2.5856142421882957e-12
1.1916801190110323e-12
5.435214081766917e-13
2.4454123908336616e-13
1.0817433174955781e-13
4.6950571195095465e-14
2.001080662659448e-14
8.41938964912913e-15
3.5337152263331077e-15
1.5008222796475533e-15
6.535235066378225e-16
2.9286184075516304e-16
1.3361576735520237e-16
6.086403426304865e-17
2.7280823091603293e-17
1.1898593573831136e-17
4.807214769426791e-18
1.5847689673193213e-18
4.2687832614465207e-19
1.0145487173481275e-18
3.666223368596617e-19
1.4740196649040575e-20
1.6007881214199048e-19
6.885805874446627e-19
1.3379137571676987e-18
2.639466188877812e-18
6.503166245397769e-18
1.664108413801754e-17
4.090834918932873e-17
9.829977166632261e-17
2.3460538843051924e-16
5.567751747420735e-16
1.310526793067439e-15
3.0539653821649122e-15
7.0356378055317795e-15
1.599594347657545e-14
3.5820014006303835e-14
7.884156526014987e-14
1.7021776094482568e-13
3.5977634278533743e-13
7.432266104820418e-13
1.4988967415722054e-12
2.949896000563464e-12
5.668525779760848e-12
1.065342673199315e-11
1.9635399855234643e-11
3.560670872243626e-11
6.370379486080259e-11
1.125389312358881e-10
1.958245967097828e-10
3.334449407213056e-10
5.498529729236355e-10
8.661071607231164e-10
1.2813201300565273e-09
1.7425272271874034e-09
2.112768664005041e-09
2.16841500806717e-09
1.6874077399080299e-09
7.230509965228953e-10
1.826308324283901e-10
2.8417730730870426e-09
1.4939274602491657e-08
4.855640120553791e-08
1.2514881981798028e-07
2.809036287085672e-07
5.749879519766469e-07
1.1020492560537474e-06
2.010184064733408e-06
3.5245990593714817e-06
5.975017684879535e-06
9.821510689601736e-06
1.5669353550884643e-05
2.4259910873926455e-05
3.642320152311203e-05
5.298072136881701e-05
7.459578203541192e-05
0.00010158303269920693
0.00013370655399034024
0.0001700119796326572
0.00020874598436445522
0.0002474102907026533
0.00028297462097865095
0.00031223683201797727
0.0003322776882184848
0.00034092477260079003
0.00033712666817050643
0.0003211512997363724
0.0002945595379798814
0.00025995697191462283
0.0002205782603585823
0.00017979484630889354
0.0001406483082922348
0.00010549658505606893
7.582521507119824e-05
5.223237076460343e-05
3.455761591856958e-05
2.209958269818691e-05
1.3861074077387521e-05
8.769451542745052e-06
5.83942243278633e-06
4.266990994535373e-06
3.4611384636239106e-06
3.030342887323189e-06
2.7440000441317446e-06
2.486056008055282e-06
2.21252939077179e-06
1.9186568856440103e-06
1.616777992340698e-06
1.3233660699178717e-06
1.0526057931699667e-06
8.140257849045226e-07
6.123088586000308e-07
4.4808405913111687e-07
3.1903740771241876e-07
2.2101437277802464e-07
1.4896779951279878e-07
9.769351954234447e-08
6.234119962380491e-08
3.8716019997837175e-08
2.3405916134139742e-08
1.377986836270947e-08
7.904589194737429e-09
4.421264215521803e-09
2.4137406323486756e-09
1.2880852304318215e-09
6.73334738373929e-10
3.4587317908428063e-10
1.7540241520524278e-10
8.842294231777747e-11
4.473835211353407e-11
2.300161333231372e-11
1.2183652345884164e-11
6.727743720807772e-12
3.894733376775509e-12
2.3568772563610132e-12
1.4762176059521071e-12
9.449954015641703e-13
6.112603466031638e-13
3.963358666925287e-13
2.565483046874987e-13
1.657105802421454e-13
1.0708220475224602e-13
6.95495382092236e-14
4.5653165833888636e-14
3.043135288119529e-14
2.0652064879454496e-14
1.4263739471372064e-14
9.996069239275544e-15
7.076479068338421e-15
5.037440062283975e-15
3.592310638246586e-15
2.559665885397414e-15
1.8195268420560358e-15
1.289049166978819e-15
9.092250092878283e-16
6.374033252413052e-16
4.4273783305754146e-16
3.0310984727942787e-16
2.028631285620139e-16
1.3106482606981894e-16
8.015927390791093e-17
4.4933783428690125e-17
2.1734924559802575e-17
7.888104685718889e-18
1.2881330632554852e-18
1.399305969954649e-19
2.8315888667238637e-18
7.91533250890293e-18
1.4159540973148095e-17
2.0624502325772312e-17
2.671389555913872e-17
3.216739711865148e-17
3.698548711317798e-17
4.130775206117886e-17
4.528973263907025e-17
4.903050117443773e-17
5.258841754627514e-17
5.608807541173103e-17
5.987727037718014e-17
6.465479666627616e-17
7.14761944316671e-17
8.157077139927076e-17
9.597674040586539e-17
1.1511668276070047e-16
1.3857241848128702e-16
1.6544518413455669e-16
1.9577311723799174e-16
2.33515157724794e-16
2.916410742088438e-16
4.0001218590887147e-16
6.172100209548415e-16
1.0485635529561882e-15
1.87465882038675e-15
3.397837394136311e-15
6.118660723599874e-15
1.0859792267941018e-14
1.8960639103426434e-14
3.2571535049951886e-14
5.508026783641642e-14
9.170536681371196e-14
1.5028832111608862e-13
2.423070144911217e-13
3.8410451388965644e-13
5.982548518076361e-13
9.148157998270315e-13
1.3718490166359102e-12
2.0138715310455467e-12
2.8856766986392503e-12
4.0172123120881155e-12
5.393538211381021e-12
6.904752235769775e-12
8.281256712982124e-12
9.057585484910944e-12
8.713760098458356e-12
7.402945209339913e-12
8.259753195489577e-12
2.351653663274232e-11
8.91002589150746e-11
2.969649477173515e-10
8.625311688283332e-10
2.2581612516685432e-09
5.4648509112773215e-09
1.2425309312711542e-08
2.6822987211664088e-08
5.536067501426525e-08
1.0976014598918998e-07
2.0973280157673333e-07
3.8715065305493634e-07
6.915364892749223e-07
1.1967460008344284e-06
2.008296354569815e-06
3.2702008437751108e-06
5.16945480844881e-06
7.935629286635572e-06
1.1832608965672749e-05
1.7139675249521604e-05
2.4120195392624995e-05
3.297831702032072e-05
4.3807186067845826e-05
5.65358059401631e-05
7.088481876636434e-05
8.634303316416423e-05
0.00010217534111273878
0.00011746819495921061
0.00013121145880157494
0.00014240675765087572
0.00015018486969238203
0.00015391086778380512
0.00015325741930560037
0.00014823397129031223
0.00013917046018676522
0.0001266650711479024
0.00011151251649183232
9.462976999774157e-05
7.69903082897077e-05
5.9568656941648646e-05
4.328908892814381e-05
2.8969884569256056e-05
1.72592203627545e-05
8.568432587215984e-06
3.0181225329840388e-06
4.1679862134041217e-07
2.8721636007661946e-07
1.9431080772357153e-06
4.603332556141896e-06
7.51809702560436e-06
1.0077957116901597e-05
1.1882238045364921e-05
1.2756620448725621e-05
1.2724522326954731e-05
1.194815344825092e-05
1.0659515359382406e-05
9.099113933239913e-06
7.473210258730444e-06
5.932481351650927e-06
4.5687938330727815e-06
3.4237119117577345e-06
2.502172843323389e-06
1.786384496049777e-06
1.2471899006949087e-06
8.520124395130999e-07
5.696630693575146e-07
3.7278368367786146e-07
2.3874183785875617e-07
1.4962388145289553e-07
9.176456578772202e-08
5.508119620625352e-08
3.2366631543032676e-08
1.8626307362960566e-08
1.0502953121400663e-08
5.8064901912744646e-09
3.1494183942490603e-09
1.6772235651105082e-09
8.777364866471194e-10
4.5182660708430174e-10
2.29036509036566e-10
1.1447944559455486e-10
5.6500892977126237e-11
2.75732088859441e-11
1.331977808915027e-11
6.37241752662302e-12
3.018433770562365e-12
1.4140243210656085e-12
6.541122935613563e-13
2.9837536054517187e-13
1.341620155962507e-13
5.955625835701273e-14
2.620855019759044e-14
1.150904484431953e-14
5.082319076956253e-15
2.270304399758529e-15
1.0266044394110776e-15
4.670272519207643e-16
2.1142282598027628e-16
9.40659926012367e-17
4.0483868742116993e-17
1.6432470199051e-17
6.188010250317741e-18
2.334586358484689e-18
3.826392624985146e-18
1.3252934054791236e-18
4.33932797922407e-19
4.337768884111072e-19
5.537904460873766e-19
4.1894648450281136e-19
5.867766334529114e-19
2.109647842337222e-18
6.118799473032435e-18
1.5198128150417176e-17
3.715008534821376e-17
9.195704521172744e-17
2.271790833830943e-16
5.557268148477152e-16
1.3449364535823296e-15
3.217761777732243e-15
7.596956391557548e-15
1.7665058049728058e-14
4.0382578129414143e-14
9.059867457958822e-14
1.9915298124662612e-13
4.2833016247399525e-13
9.004432616728789e-13
1.849301677101249e-12
3.710990811074115e-12
7.281619665757216e-12
1.3987512592160254e-11
2.6336396564233993e-11
4.8631495409879814e-11
8.798573690671904e-11
1.5546682785458996e-10
2.666853874040279e-10
4.402173042914109e-10
6.911748881149018e-10
1.0170155625194498e-09
1.3753612843785369e-09
1.6619133185949088e-09
1.712252121664015e-09
1.372709799414319e-09
7.058996688957495e-10
4.068736545024095e-10
2.504018218913548e-09
1.1422332495759953e-08
3.55411441541885e-08
8.954687983462947e-08
1.9820911437836376e-07
4.026653496889292e-07
7.707306254555101e-07
1.412852110716972e-06
2.504706503459951e-06
4.3157046168300625e-06
7.239631385688225e-06
1.1819531556728148e-05
1.8754596170066578e-05
2.8873784415451145e-05
4.306136643504695e-05
6.212561272742173e-05
8.661455888580342e-05
0.00011660098030938479
0.00015147826575582002
0.00018982301000987708
0.0002293813745340282
0.00026721949294580095
0.00030004379892551933
0.0003246524567960638
0.00033843704637175087
0.00033982877052694837
0.00032858619343821804
0.0003058537935812202
0.0002739742943371974
0.00023609708830270675
0.0001956722843113051
0.00015594139927975706
0.0001195267244198108
8.818706928348817e-05
6.276042803664167e-05
4.326902404120839e-05
2.9131273018840902e-05
1.9414264917544608e-05
1.3068152148736035e-05
9.103853009274112e-06
6.699217301625622e-06
5.238896922614678e-06
4.305415917680078e-06
3.6426995467075128e-06
3.1106104804738466e-06
2.6430084192817376e-06
2.215414881392461e-06
1.8233937342333283e-06
1.4699060567505466e-06
1.1589159978209724e-06
8.927362669845968e-07
6.713150387354238e-07
4.923987731746651e-07
3.5203463330517033e-07
2.4517259938559753e-07
1.6625737804141493e-07
1.0974644135259162e-07
7.051112193431337e-08
4.4098312645054886e-08
2.6854034560145887e-08
1.5930925554214407e-08
9.21396984944031e-09
5.201071079731652e-09
2.8695968999395516e-09
1.5506327067144946e-09
8.229146643755526e-10
4.305129421185176e-10
2.2314552224388457e-10
1.1534978422405424e-10
5.995521078535458e-11
3.162955591647314e-11
1.709618269321057e-11
9.539020769736441e-12
5.513972206036302e-12
3.297648716310388e-12
2.029183860940023e-12
1.2748571210993943e-12
8.114752790489158e-13
5.201118750965495e-13
3.343970825804501e-13
2.153547234255628e-13
1.390156722577397e-13
9.014209356154291e-14
5.887980545385156e-14
3.883957287035595e-14
2.5910026710418166e-14
1.7478669975313925e-14
1.1906005250618465e-14