# vtk DataFile Version 4.1 
COMMENT
ASCII
DATASET STRUCTURED_POINTS 
DIMENSIONS 300 300 1 
ORIGIN 0 0 0
SPACING 0.020943951023931952 0.020943951023931952 0 
POINT_DATA 90000
SCALARS U double 1
LOOKUP_TABLE default
6.227730377038631e-19
1.0769350819221435e-18
2.555939929880479e-18
6.208253694719776e-18
1.4250416198616256e-17
3.1928588029473274e-17
7.126154637655893e-17
1.586883118701529e-16
3.518100183278464e-16
7.754921721352469e-16
1.6977585510611862e-15
3.686839013116403e-15
7.931065064729639e-15
1.6877420615454322e-14
3.5476980094645125e-14
7.355554771525991e-14
1.5021670163042956e-13
3.018313870398251e-13
5.962494768235957e-13
1.1577210226942028e-12
2.210281774297779e-12
4.153155853239557e-12
7.691583363311969e-12
1.4061325981437792e-11
2.5402013367939277e-11
4.533958303223194e-11
7.979576171409868e-11
1.3788770006005592e-10
2.3243267278008287e-10
3.7900307949461307e-10
5.918638372540911e-10
8.750703263953824e-10
1.2086789853304135e-09
1.5349223031280859e-09
1.7581989923859004e-09
1.7844092558084747e-09
1.6343008562616531e-09
1.6636589042327035e-09
2.903676611002851e-09
7.502304042018003e-09
1.9227864794374088e-08
4.403913711695838e-08
9.0888140907199e-08
1.7323142685850477e-07
3.121400027143235e-07
5.422792225422781e-07
9.221642890549899e-07
1.5497625698380803e-06
2.5835706572361984e-06
4.267751658008332e-06
6.9579480094313506e-06
1.1142281704526735e-05
1.7450188757822043e-05
2.6640550076427393e-05
3.956062336248993e-05
5.706921006539732e-05
7.99219580569333e-05
0.00010862402637167812
0.0001432650553964647
0.00018336183911361092
0.0002277424000230004
0.00027450775698268585
0.0003211014628813345
0.00036450080987190416
0.00040151936731111574
0.00042918342555060476
0.00044512233602989466
0.0004479019627132584
0.00043723608893221475
0.0004140326017890992
0.0003802645150828097
0.00033869173383593767
0.00029248847652953896
0.0002448462873492845
0.00019862081263108863
0.00015607408371364712
0.0001187387546967831
8.740390868161119e-05
6.220016818481438e-05
4.274893943885099e-05
2.8337630485804424e-05
1.8087919688560674e-05
1.109437395426149e-05
6.522372339260598e-06
3.6645047256347368e-06
1.9617085289362617e-06
9.98942666903274e-07
4.856858532580216e-07
2.2999331190879592e-07
1.1233829605370079e-07
6.287839987463682e-08
4.366210274814612e-08
3.584278818050234e-08
3.117226220840478e-08
2.675262327240445e-08
2.204882209676616e-08
1.734319942413529e-08
1.3035272763240082e-08
9.391862533651833e-09
6.5086298221649605e-09
4.351570350133277e-09
2.8142207868139383e-09
1.7645628928160442e-09
1.0750898611804164e-09
6.37950200399226e-10
3.696774974579114e-10
2.098926895182555e-10
1.1726903333775915e-10
6.483709029910509e-11
3.572739456464053e-11
1.978519124333841e-11
1.110716551534771e-11
6.367337976653065e-12
3.7420260302074635e-12
2.2527303089001536e-12
1.3817813909633513e-12
8.562753798098108e-13
5.30849084853061e-13
3.2600413145602723e-13
1.9644039631359844e-13
1.1504487842421638e-13
6.481049732283631e-14
3.468419751882765e-14
1.7341478930002066e-14
7.912395754452481e-15
3.1938104065640497e-15
1.127323529163781e-15
4.3643383177936035e-16
3.6861699348508785e-16
5.116924430412805e-16
6.649053450309679e-16
7.507808495381858e-16
7.57131376226372e-16
7.009023067820745e-16
6.073319674758948e-16
4.993741110521071e-16
3.9356736195778004e-16
2.9957580345475933e-16
2.2148798147262837e-16
1.5965739312554036e-16
1.124018942376687e-16
7.726160301556945e-17
5.1761587933878767e-17
3.376147757872408e-17
2.1528051270205046e-17
1.3667245438477458e-17
9.022683788873462e-18
6.606448962819522e-18
5.5863608787933e-18
5.320440229821798e-18
5.4085607368926556e-18
5.725853183258065e-18
6.411285244994869e-18
7.803547419869248e-18
1.0337766307086174e-17
1.4432789516025768e-17
2.0403812978700112e-17
2.842672871188697e-17
3.856105289039186e-17
5.0813864875764984e-17
6.520662613157978e-17
8.179984592776672e-17
1.0064639554176825e-16
1.2168869054694485e-16
1.4468670897785287e-16
1.6934993840158333e-16
1.9591952121743153e-16
2.2646905792588666e-16
2.6712915774116303e-16
3.31286056172676e-16
4.4361112186622256e-16
6.446754043827441e-16
9.960809654290634e-16
1.586669437545439e-15
2.5414431985852544e-15
4.03594565019404e-15
6.318921361799881e-15
9.743183723083448e-15
1.4795978898969112e-14
2.2102550172583133e-14
3.2347696554486475e-14
4.602139782833896e-14
6.28591626209457e-14
8.086007746966371e-14
9.495079174140434e-14
9.604653197204662e-14
7.323506925795678e-14
2.6924613988377677e-14
1.3158312930985114e-14
2.676483473315209e-13
1.5203020474292338e-12
5.742293818205071e-12
1.7834732097312215e-11
4.929190064715574e-11
1.258637176226429e-10
3.030494712389982e-10
6.964174935378031e-10
1.539034140089107e-09
3.2866825224609204e-09
6.804088621437581e-09
1.36827090975544e-08
2.6762245182274235e-08
5.0950935549679033e-08
9.445672811532366e-08
1.7053980349828605e-07
2.998574951343432e-07
5.133718780219368e-07
8.556061964849748e-07
1.3877595998968772e-06
2.189839358952152e-06
3.3606091924073017e-06
5.013898137877714e-06
7.269827884674442e-06
1.0239968826227276e-05
1.4006444322211446e-05
1.859655445740246e-05
2.3956370418072648e-05
2.992852516456686e-05
3.624050693597312e-05
4.250955952214332e-05
4.8268427081898403e-05
5.301267709223701e-05
5.6265718088696264e-05
5.765285704982685e-05
5.6971981016069825e-05
5.424676922308891e-05
4.9749446460151456e-05
4.398414815055913e-05
3.7628591244923496e-05
3.144000189477494e-05
2.6139698783997776e-05
2.2297474909261632e-05
2.0239841877773448e-05
2.0003504698828785e-05
2.1346493301424766e-05
2.38155419592901e-05
2.6853148506468758e-05
2.991624208021394e-05
3.25751048200568e-05
3.4568117306280065e-05
3.5803077123221244e-05
3.631375061364303e-05
3.619406484848608e-05
3.5536741536217684e-05
3.43971189162378e-05
3.278979954766171e-05
3.071170394165517e-05
2.8175917201946538e-05
2.523933130799239e-05
2.2012671471761686e-05
1.8650437667324792e-05
1.5326323546650086e-05
1.220386416938209e-05
9.411752196688508e-06
7.029745921093289e-06
5.086536996814767e-06
3.567248268746579e-06
2.426362187204266e-06
1.6018276754304939e-06
1.0272287162564408e-06
6.404382157586026e-07
3.885255801020614e-07
2.295456832663781e-07
1.3219033242643065e-07
7.426489680455214e-08
4.073717541568089e-08
2.1836758057354326e-08
1.1448144141655971e-08
5.874640002391416e-09
2.953019241284231e-09
1.4552290752914613e-09
7.036416700734981e-10
3.341900628464397e-10
1.5613102968769633e-10
7.189323475382796e-11
3.270546210057506e-11
1.4733224978659452e-11
6.5816470396077736e-12
2.914107913190367e-12
1.2749695282110286e-12
5.484377466512499e-13
2.3071943572264577e-13
9.466844878848011e-14
3.802456395552738e-14
1.5154155987057983e-14
6.136426215001269e-15
2.5888372813940874e-15
1.1473923307923694e-15
5.242217306125846e-16
2.3828775937365354e-16
1.0404214622363892e-16
4.2268352598277717e-17
1.537305364140942e-17
4.8023582411942e-18
1.3464177914928707e-18
4.2753194516606553e-19
1.0864623441246584e-19
1.550049782359747e-21
1.5864300700007115e-19
4.1843912276451566e-19
1.5207224487200377e-19
1.896272258896836e-19
7.845262344307076e-19
2.133446368720031e-18
4.847873792734693e-18
1.0958753502953507e-17
2.525381212092523e-17
5.826729055049674e-17
1.3369316489003548e-16
3.049700134468207e-16
6.909765612833654e-16
1.5526918748544294e-15
3.45617424056792e-15
7.612220095250633e-15
1.656909986563166e-14
3.559556357622717e-14
7.538287929939648e-14
1.572116337853944e-13
3.226342625772833e-13
6.513000268331857e-13
1.293276338439375e-12
2.5268585847880544e-12
4.860382175742782e-12
9.207514246808485e-12
1.7178048228103742e-11
3.153163912544314e-11
5.6817656211970345e-11
1.0012828077011688e-10
1.7167017877104077e-10
2.8449080882280304e-10
4.5229364825535715e-10
6.842500516953849e-10
9.768736332111476e-10
1.3064125011983649e-09
1.631402389468025e-09
1.9227930796788523e-09
2.244179926388554e-09
2.9003357881061807e-09
4.653108292592164e-09
8.974043978053375e-09
1.828544063473801e-08
3.617890767709792e-08
6.774303151004706e-08
1.2040616357773072e-07
2.060735996413523e-07
3.4569769031527786e-07
5.775902694791435e-07
9.705912086267118e-07
1.6425351109735598e-06
2.7833120257549016e-06
4.680299381896309e-06
7.742201426622507e-06
1.2515533234980552e-05
1.9686345339310602e-05
3.0058688017862232e-05
4.450143102752108e-05
6.385731350628344e-05
8.881340532089369e-05
0.00011974085949043495
0.0001565230871333306
0.00019840288685048013
0.00024388683743373706
0.00029074524380716263
0.00033613512517964496
0.000376852024721797
0.00040968751949702363
0.00043184040254609613
0.0004413093184976639
0.0004371904647075727
0.00041981884471477173
0.0003907226928496173
0.00035240005880116283
0.00030796346087724416
0.00026072319035855035
0.00021378652092120173
0.00016973858740529157
0.00013044599769550702
9.699426003857234e-05
6.974295943601358e-05
4.846420972771246e-05
3.252269502987401e-05
2.105865420616301e-05
1.3145180650999756e-05
7.904078095466306e-06
4.576577951239386e-06
2.554123504168241e-06
1.3793012804440255e-06
7.282202059010773e-07
3.8428777556822727e-07
2.10676825968127e-07
1.258848243873022e-07
8.43453958774803e-08
6.235323450285027e-08
4.860878869053982e-08
3.8315956588122494e-08
2.976382669187246e-08
2.2506058495263114e-08
1.6488294059034973e-08
1.1691631287750042e-08
8.028831152190459e-09
5.346211304700096e-09
3.457099739111229e-09
2.174576011848527e-09
1.3330352008403503e-09
7.980846969231257e-10
4.678722938126513e-10
2.694505306686879e-10
1.5305699940548786e-10
8.617740948396027e-11
4.837459172520342e-11
2.7244141983513148e-11
1.5489373110866985e-11
8.93406313064292e-12
5.241751842894415e-12
3.1273909443157847e-12
1.891235947225099e-12
1.1527821121289964e-12
7.033518447083594e-13
4.2634171984056616e-13
2.5478717641387094e-13
1.4896295410076512e-13
8.453006984185524e-14
4.617068421663276e-14
2.4073249387703817e-14
1.1912371077313453e-14
5.6310008276370145e-15
2.67020396944377e-15
1.462029025413243e-15
1.0865849577996487e-15
1.0375966148156244e-15
1.0628112351468084e-15
1.0573533029987142e-15
9.947562771436065e-16
8.845111124329228e-16
7.47792141729144e-16
6.051272258973412e-16
4.714381325077112e-16
3.552118435487059e-16
2.596309733417986e-16
1.8432082363182635e-16
1.2698307940237434e-16
8.460598147921037e-17
5.4199342795655e-17
3.313717960216656e-17
1.9239251577603172e-17
1.0719295464524752e-17
6.0980159111858894e-18
4.140127753389865e-18
3.837283233907288e-18
4.428807103084063e-18
5.4338075024246885e-18
6.663545467679684e-18
8.191419915841255e-18
1.0275762006424715e-17
1.3251190688245175e-17
1.7419861304586945e-17
2.2978305942567694e-17
3.0006145593711185e-17
3.852187860705478e-17
4.858469983860919e-17
6.039932314008387e-17
7.43734827094038e-17
9.109411314891375e-17
1.1123246465651614e-16
1.3545641165823682e-16
1.6450369348072254e-16
1.9962372575053084e-16
2.4359190980387373e-16
3.024113365014173e-16
3.876472962141502e-16
5.1915399147105385e-16
7.278877134301989e-16
1.0587492084620759e-15
1.5741353271607965e-15
2.3601222696788916e-15
3.5385996587813133e-15
5.2892743072156445e-15
7.883524794589705e-15
1.1725079637753473e-14
1.7377480456924657e-14
2.5533160830729772e-14
3.6845459026242934e-14
5.151597817912777e-14
6.854765612818171e-14
8.47532157489949e-14
9.423521220930347e-14
9.080371727489985e-14
8.019987843750685e-14
1.1937217177460902e-13
4.233756564044353e-13
1.6308563524086305e-12
5.4242479228763055e-12
1.5913316022357456e-11
4.2606777687421174e-11
1.0658558667954937e-10
2.529366822047737e-10
5.75056018986269e-10
1.260743291715544e-09
2.6769626563103523e-09
5.520725536077715e-09
1.1078567907746772e-08
2.165653200742597e-08
4.1264534038924866e-08
7.665828501716965e-08
1.3884840058546274e-07
2.4516395230829114e-07
4.218853171356228e-07
7.073165546638864e-07
1.154936046950353e-06
1.8359519905721998e-06
2.8402390953562383e-06
4.274335337462068e-06
6.255071455861113e-06
8.897655350613171e-06
1.2297779773055995e-05
1.6508612435320653e-05
2.151524497545854e-05
2.721099498285333e-05
3.338136081343781e-05
3.9701828657579144e-05
4.5754629880699176e-05
5.106675062588654e-05
5.516726787990597e-05
5.765717954923419e-05
5.828043366017102e-05
5.6982087133160466e-05
5.393949262686527e-05
4.955570192166301e-05
4.4410779268385196e-05
3.9175531350657596e-05
3.450157553273989e-05
3.090934777046604e-05
2.86990591928094e-05
2.7906752192467882e-05
2.8317964458715443e-05
2.953679471386326e-05
3.1092383710167284e-05
3.255328161074146e-05
3.361751720390752e-05
3.4154238842870536e-05
3.418927231690326e-05
3.38459174083197e-05
3.3266540539464056e-05
3.254461402960162e-05
3.1689692737519e-05
3.063302887790935e-05
2.926564403111706e-05
2.74900530770822e-05
2.5264861571120082e-05
2.2627484644778043e-05
1.969048459716186e-05
1.6616774129727862e-05
1.3584694224417533e-05
1.0754646723664932e-05
8.245656877549851e-06
6.125227889561973e-06
4.4113157392598e-06
3.082500922032317e-06
2.0917055630990285e-06
1.3795823608245996e-06
8.851853435035473e-07
5.530254220664832e-07
3.367104622366864e-07
1.9995660800724205e-07
1.1591534926927761e-07
6.564827813739108e-08
3.6351987504689275e-08
1.969680858701533e-08
1.0451154363747842e-08
5.434681857631179e-09
2.771927260837184e-09
1.3879755159444167e-09
6.830258601492299e-10
3.307557968740274e-10
1.5785224227468142e-10
7.436487649550724e-11
3.4631162300242296e-11
1.5953815200865023e-11
7.2677135186985e-12
3.2687202986504076e-12
1.448092160829811e-12
6.307077638494924e-13
2.701246148548753e-13
1.1423086542631164e-13
4.8125225766793955e-14
2.0450530116554915e-14
8.8593269750766e-15
3.919453542837144e-15
1.751968506752204e-15
7.756799205933879e-16
3.3253237455047034e-16
1.350382945069763e-16
5.097741618372464e-17
1.7796876594638e-17
5.9129454780106106e-18
1.9318198329276664e-18
5.850561461354278e-19
2.446108264360461e-19
3.0561048792423615e-19
3.0703500166164323e-19
8.130050775075232e-20
6.330487282559985e-20
3.8629442452579357e-19
8.156447256309118e-19
1.5440887583843675e-18
3.524656639261312e-18
8.60208490850685e-18
2.0647628971048673e-17
4.8989890166763794e-17
1.1578669804338152e-16
2.7194297446113315e-16
6.330550848129723e-16
1.4596546489906125e-15
3.331558870956608e-15
7.518932255206012e-15
1.6757884634399872e-14
3.684013632440824e-14
7.980410787820634e-14
1.7020982441079067e-13
3.5723367798961055e-13
7.375288505290716e-13
1.4975704289987275e-12
2.9903177462060687e-12
5.870037374774901e-12
1.1320122871269167e-11
2.1416505574405007e-11
3.9659622863279534e-11
7.165353372823299e-11
1.2577497904423274e-10
2.1343989473305689e-10
3.4831082755988154e-10
5.437654129141473e-10
8.087142028938161e-10
1.1441332578627352e-09
1.5468145731213485e-09
2.031816875051256e-09
2.6875527350203956e-09
3.771993215601377e-09
5.840994052657809e-09
9.874099446449818e-09
1.7348603554589334e-08
3.024549136114482e-08
5.10933672455159e-08
8.339104331384505e-08
1.3306860204334686e-07
2.1195848453561309e-07
3.4441499839086766e-07
5.781111263113462e-07
9.995868159526368e-07
1.7543381811243573e-06
3.070185514469206e-06
5.281381766199663e-06
8.849406494711714e-06
1.4374623755685315e-05
2.2591138253645224e-05
3.4335823006163886e-05
5.0482646696537665e-05
7.183641181245849e-05
9.898688790528634e-05
0.00013213514893541846
0.0001709170818151143
0.0002142610273899227
0.0002603225852267516
0.0003065352354753908
0.00034979832063445764
0.00038679576429213246
0.000414405834430689
0.00043013362384540597
0.0004324833109396417
0.0004211929504750056
0.00039728074804164893
0.0003628920732320675
0.0003209797468522008
0.0002748843547157134
0.00022789760175917682
0.00018288703942744906
0.0001420382642674972
0.00010673887817038947
7.759660076390417e-05
5.455980476840486e-05
3.709664438551469e-05
2.4389003878106217e-05
1.550665816471875e-05
9.540729597092365e-06
5.689314958448393e-06
3.2989237299130328e-06
1.8717320170511172e-06
1.0507684189439527e-06
5.941220774352928e-07
3.465351603298963e-07
2.1357958058821139e-07
1.4086605364809283e-07
9.87800192078533e-08
7.211621035615519e-08
5.352252034920522e-08
3.9629581102061475e-08
2.8923759470274248e-08
2.066902868834297e-08
1.4413520186532441e-08
9.79542359899439e-09
6.486233932771895e-09
4.186874863024677e-09
2.637162565328196e-09
1.623074881841794e-09
9.778985883838291e-10
5.781293585303764e-10
3.3636766515607175e-10
1.932996320623268e-10
1.1018724464436724e-10
6.26039305328461e-11
3.563060829688548e-11
2.0410236992856812e-11
1.181167398864447e-11
6.920748809151722e-12
4.106159011390268e-12
2.4622129426104304e-12
1.4867179728081012e-12
8.995329793363963e-13
5.423311451178492e-13
3.23918856833337e-13
1.905609175204466e-13
1.098357981327193e-13
6.176013891618242e-14
3.3819249050224077e-14
1.811150755599333e-14
9.65366277794245e-15
5.338679334184714e-15
3.2726939147405342e-15
2.3416282659979608e-15
1.923459735515355e-15
1.6968325657055404e-15
1.515334545064749e-15
1.3271365201481666e-15
1.1258375169170914e-15
9.223244031198553e-16
7.302482131696741e-16
5.598177831212477e-16
4.162376369149942e-16
3.003762846598834e-16
2.1019980021832143e-16
1.42185047759948e-16
9.237841567032016e-17
5.7035100709513e-17
3.2909188113315047e-17
1.7311702212346844e-17
8.05021374362433e-18
3.3363665115649832e-18
1.7132631569461743e-18
2.021951135661089e-18
3.4002151744992707e-18
5.290799809273089e-18
7.432115993039571e-18
9.812346325100285e-18
1.2584474054798515e-17
1.5959007275790876e-17
2.010562441522326e-17
2.5098399012073138e-17
3.0928976535432645e-17
3.759016940417107e-17
4.520558968062316e-17
5.415893182504124e-17
6.516985232469465e-17
7.928030461061151e-17
9.775819151835393e-17
1.2198757971637266e-16
1.5347820906238173e-16
1.941629219463554e-16
2.471281272036626e-16
3.178198276940656e-16
4.156002986377392e-16
5.553682547590906e-16
7.589342914966863e-16
1.0561473496502555e-15
1.4865649946130842e-15
2.103782233294041e-15
2.986101914322685e-15
4.258257292413755e-15
6.1279334845378485e-15
8.935778283535855e-15
1.3206093268360295e-14
1.9666069487360818e-14
2.9176839904240897e-14
4.250321909907399e-14
5.988115150271233e-14
8.052617852723389e-14
1.0280971422703789e-13
1.2737485926795404e-13
1.6920347536319357e-13
2.9320327404039983e-13
7.066739864649814e-13
1.9819296108455564e-12
5.564744031547459e-12
1.4889822739421736e-11
3.774829635356321e-11
9.116798903860385e-11
2.1120266871461342e-10
4.720491338260521e-10
1.022374979127885e-09
2.1524089144052702e-09
4.414141425454335e-09
8.829778436284134e-09
1.7240733596351266e-08
3.286991891225364e-08
6.119027251219357e-08
1.1120462998010042e-07
1.9723317318909835e-07
3.4125640951408555e-07
5.757527253706013e-07
9.467823033149849e-07
1.5168002018346476e-06
2.3663556958737914e-06
3.593519279178293e-06
5.3096867560403e-06
7.63049085642907e-06
1.0661054430734563e-05
1.44758368534342e-05
1.909481959324926e-05
2.4459525345570293e-05
3.0413948209463653e-05
3.669633509468187e-05
4.294735016803491e-05
4.8738120517851625e-05
5.361803157974594e-05
5.717743810249636e-05
5.911567307674072e-05
5.9301158635809004e-05
5.7809327475318586e-05
5.4926361243233564e-05
5.111264508744187e-05
4.6928573825526675e-05
4.293515742082737e-05
3.9590185600023596e-05
3.716469305129726e-05
3.5701917279425244e-05
3.5031308505403804e-05
3.4835275371711e-05
3.475044006505726e-05
3.4473701879183436e-05
3.384108192548668e-05
3.285592052013378e-05
3.166010859185875e-05
3.0461567381140343e-05
2.9445717409233402e-05
2.8702621343270235e-05
2.8193632146435965e-05
2.7765397919611015e-05
2.720175416144169e-05
2.6292130864102634e-05
2.489243914145038e-05
2.2960593226259023e-05
2.0560058783237206e-05
1.783604642519254e-05
1.4976213825240317e-05
1.216945445742857e-05
9.573416669050733e-06
7.296108858144121e-06
5.391720030931131e-06
3.867221773496092e-06
2.6949091220333804e-06
1.8264004292238428e-06
1.2049630265148832e-06
7.745985080282001e-07
4.856051934526048e-07
2.971343796216369e-07
1.7759406341201997e-07
1.0376259827316652e-07
5.9307970088916815e-08
3.3186737307773e-08
1.819350704610562e-08
9.779091724880705e-09
5.157744112835085e-09
2.671663531344719e-09
1.3604798818444648e-09
6.818213506114846e-10
3.3669346287715075e-10
1.6401852413786277e-10
7.889739622200838e-11
3.749486728473899e-11
1.760311857421329e-11
8.159230282916073e-12
3.730871879517826e-12
1.682542320300091e-12
7.492513413064001e-13
3.3055234721915755e-13
1.4527519959508774e-13
6.400992390017968e-14
2.840316963190809e-14
1.2687335434402794e-14
5.666757858465779e-15
2.5013232593936314e-15
1.0762765378267758e-15
4.458167886050475e-16
1.76413678161142e-16
6.686425896025852e-17
2.4681993725224196e-17
9.102871324066936e-18
3.530923742109368e-18
1.6675034287934465e-18
9.849694272326234e-19
4.765180940991334e-19
6.157796516223656e-19
3.9474799801415266e-19
4.058365692653085e-19
3.1184249548323784e-19
3.5344049595985085e-19
1.0498784166148324e-18
2.897723713606333e-18
7.081217461912791e-18
1.7248154459650497e-17
4.2438583572034035e-17
1.0359148931072935e-16
2.4988515526123187e-16
5.971409655004613e-16
1.4140686363309892e-15
3.3134238834191367e-15
7.670527069603684e-15
1.7522298388448552e-14
3.9458058696420404e-14
8.751360530675606e-14
1.9102317837452346e-13
4.101070211447787e-13
8.655045056864099e-13
1.7945253233132636e-12
3.652678721171306e-12
7.290947642780929e-12
1.4248959851290442e-11
2.7205908261794378e-11
5.0606223989820933e-11
9.140010187493256e-11
1.5969346056618236e-10
2.6892652028101825e-10
4.351654168803856e-10
6.755608812366115e-10
1.007481671201265e-09
1.4524736947752603e-09
2.052201131645118e-09
2.904276798129848e-09
4.220251047338708e-09
6.3929939762296585e-09
1.0039833916559315e-08
1.5977248180830967e-08
2.5112543602566637e-08
3.83417890560972e-08
5.6737813909066045e-08
8.25724056498419e-08
1.2196754862040796e-07
1.9010682026890287e-07
3.198726333184393e-07
5.744825966938801e-07
1.0642185348241116e-06
1.9667227816573654e-06
3.5495479890068686e-06
6.192535367130945e-06
1.0405956866793194e-05
1.6838139679614497e-05
2.6263872953455554e-05
3.954326143607298e-05
5.75413544536752e-05
8.1003443702048e-05
0.00011039030461087783
0.0001456912013326434
0.000186247378910398
0.00023063022748767936
0.00027662071907821385
0.0003213257733339607
0.0003614421940885439
0.00039364409024939277
0.00041503430257353616
0.0004235755100088371
0.00041841177076192877
0.0004000099776402254
0.0003700891510990997
0.0003313530492352105
0.00028708456192046145
0.0002406868218110733
0.0001952596795248713
0.00015328230615139035
0.00011644060196840476
8.560227437565045e-05
6.091268672407983e-05
4.1967103967606225e-05
2.8011306379493834e-05
1.813016849266825e-05
1.1397846792300418e-05
6.978521949301158e-06
4.1792700217647525e-06
2.464601357168418e-06
1.4453571650604448e-06
8.540817678728885e-07
5.162755895750036e-07
3.235473341835757e-07
2.1163981853956833e-07
1.4409606003940562e-07
1.0103535564333802e-07
7.195242808322133e-08
5.137969618620326e-08
3.642728443968463e-08
2.5469766897477922e-08
1.7488310143965317e-08
1.1763407651175875e-08
7.741992341408005e-09
4.983752474166389e-09
3.138951050954961e-09
1.9360976402254814e-09
1.171155397103799e-09
6.961802646075925e-10
4.0773634721285417e-10
2.3603389722523216e-10
1.3555826924396368e-10
7.755739850918103e-11
4.4392439390564e-11
2.5521907700103002e-11
1.478607707867016e-11
8.650532635074617e-12
5.114005957336017e-12
3.0521910392224727e-12
1.8347817541697627e-12
1.1071192738201707e-12
6.67823352052963e-13
4.0096391057660507e-13
2.386448568282115e-13
1.4034307802159694e-13
8.14244891628399e-14
4.6683349883088345e-14
2.6641876708606492e-14
1.537966342769835e-14
9.223450499568567e-15
5.931945653512652e-15
4.174842653785778e-15
3.1937086817613432e-15
2.5799021831144642e-15
2.1302681278091776e-15
1.7554478904482696e-15
1.4237936236170548e-15
1.1289668432922519e-15
8.727590574124671e-16
6.571851176948036e-16
4.817905045397062e-16
3.4353890793135585e-16
2.3769403937467404e-16
1.58843127595816e-16
1.0168719179915713e-16
6.150333627334415e-17
3.4323944774782246e-17
1.6927561000859444e-17
6.736431363536166e-18
1.6933819448448784e-18
1.6167634474296351e-19
8.637424817284962e-19
2.8523562521182634e-18
5.4939550287515686e-18
8.440313196082352e-18
1.1572080436913405e-17
1.4912953572134052e-17
1.853090209207603e-17
2.2455872114798908e-17
2.6645782823123054e-17
3.102184580452854e-17
3.5572453276385033e-17
4.0498817345530554e-17
4.6354869937494004e-17
5.4128630754319833e-17
6.522935372911574e-17
8.138495356476455e-17
1.0450897121602338e-16
1.3664690386190687e-16
1.8013171440463624e-16
2.380417626667585e-16
3.1494976516179943e-16
4.1779989599723726e-16
5.566225152520939e-16
7.448185477135774e-16
9.990831461018504e-16
1.339842032289985e-15
1.794384761022458e-15
2.406490585706064e-15
3.2576463077919624e-15
4.504829219272641e-15
6.436682230635733e-15
9.542105511574624e-15
1.457235299773291e-14
2.256318353934267e-14
3.4781333019444334e-14
5.260749487254168e-14
7.755777089420628e-14
1.1218520812689689e-13
1.639471391146839e-13
2.5723883579495534e-13
4.656878867926658e-13
9.915706715306086e-13
2.35004470723021e-12
5.778866981944499e-12
1.4120244705900657e-11
3.36680608676563e-11
7.794496121600787e-11
1.7524987105288328e-10
3.83394073127288e-10
8.177815577843225e-10
1.7035404785107798e-09
3.4696087368259435e-09
6.913395111689877e-09
1.3479459975113694e-08
2.5714222179130044e-08
4.7978667010496113e-08
8.751677463101266e-08
1.559786835667805e-07
2.7146905386207073e-07
4.611133832789916e-07
7.639892836946941e-07
1.2340459244734837e-06
1.942343976598715e-06
2.977635721104078e-06
4.4440590629717995e-06
6.4546687246819766e-06
9.119818899777106e-06
1.2530161512362533e-05
1.6735258438210663e-05
2.1720395338018783e-05
2.7385810533310784e-05
3.35337297931127e-05
3.986877438713545e-05
4.601603104238119e-05
5.1558177399271844e-05
5.608883704082688e-05
5.927459505428868e-05
6.09140519089189e-05
6.09802986157596e-05
5.9634402380495865e-05
5.720239385794478e-05
5.411634011895005e-05
5.082972083659381e-05
4.772588839360218e-05
4.504291309301371e-05
4.2836220080917135e-05
4.099142576864423e-05
3.928544025553936e-05
3.747839287018332e-05
3.540771998005916e-05
3.30535495352413e-05
3.0553141394528813e-05
2.815924822801749e-05
2.6156816182134656e-05
2.476700502114933e-05
2.40713857104933e-05
2.398098868100275e-05
2.42581884174618e-05
2.4581068904461154e-05
2.4626948498458453e-05
2.414836000865431e-05
2.3020912608436168e-05
2.125437812751425e-05
1.8970785360103952e-05
1.636188852426167e-05
1.3641130086329355e-05
1.1002757999633674e-05
8.595347383966873e-06
6.511201203363279e-06
4.7888263024176005e-06
3.4236283787385322e-06
2.3818996302000177e-06
1.6143317105127732e-06
1.0668651581401659e-06
6.881018482366501e-07
4.3348130889397193e-07
2.669230505381415e-07
1.6077044685323421e-07
9.478229468231602e-08
5.473215728487148e-08
3.097774108072121e-08
1.7197188606497764e-08
9.371157897899096e-09
5.016616085375529e-09
2.6405509465849003e-09
1.367905275584471e-09
6.981009493057112e-10
3.5130341717497286e-10
1.744542360553242e-10
8.553330696977268e-11
4.141249484474556e-11
1.9799928943465908e-11
9.348518284935776e-12
4.360839873264902e-12
2.0124345462341616e-12
9.209801581105114e-13
4.193594365053368e-13
1.9061443092677286e-13
8.664842380862364e-14
3.935323677067506e-14
1.778034603302919e-14
7.936521481708869e-15
3.4726685007194447e-15
1.4799969654464499e-15
6.129039780799968e-16
2.477160319786324e-16
9.8964361659696e-17
3.9943771584978154e-17
1.685411666629324e-17
7.694514081593544e-18
3.670208384325506e-18
1.5933411508002041e-18
2.9342066924916024e-18
1.4614220733562318e-18
6.75384291522023e-19
1.3372971808633534e-19
2.5938293271128445e-20
4.0475221354883863e-19
1.0511043473069866e-18
2.280143041900304e-18
5.751333728617302e-18
1.509453058060129e-17
3.832180563265291e-17
9.542163984113901e-17
2.3633481921650163e-16
5.8171085925702e-16
1.417402953689175e-15
3.4121941058759586e-15
8.1077207344082e-15
1.899632276029393e-14
4.3844377095182127e-14
9.95939579640003e-14
2.2246465087849926e-13
4.882470721982854e-13
1.0519241061214707e-12
2.2225100953726014e-12
4.598898014707719e-12
9.304606762049397e-12
1.836894707109959e-11
3.529803038674208e-11
6.584298444879377e-11
1.1888869345249833e-10
2.0726979974726446e-10
3.482706135387778e-10
5.638102163267164e-10
8.81161219566622e-10
1.3366095007513288e-09
1.9860840549650245e-09
2.9265008370053582e-09
4.326316549068983e-09
6.451552701228315e-09
9.657663449551209e-09
1.4311465929480414e-08
2.063488296473748e-08
2.8549451080731807e-08
3.775756282121147e-08
4.849899351456698e-08
6.360720561767457e-08
9.258220683651848e-08
1.5834696076446105e-07
3.071772768530301e-07
6.220573804987681e-07
1.2394619131487955e-06
2.3692275735621123e-06
4.316508550243364e-06
7.5034582720355445e-06
1.2486002138577872e-05
1.9958024899772488e-05
3.073231450193434e-05
4.568620389332609e-05
6.566195030301474e-05
9.13191055828011e-05
0.00012294881829266575
0.00016027636192813375
0.00020229389005617566
0.0002471743603947894
0.0002923137428613007
0.00033452882857311437
0.0003704041538215064
0.00039674160563827785
0.0004110321662685231
0.00041185307174439813
0.0003991028241510256
0.0003740203369101525
0.0003389838803444695
0.000297135895951839
0.0002519164510531107
0.00020660141120209055
0.00016392964208396612
0.00012587286514020981
9.356315680080216e-05
6.73580287482686e-05
4.699989652325243e-05
3.181874809576216e-05
2.093222831523878e-05
1.3411227049974017e-05
8.395582948528073e-06
5.158932543796822e-06
3.1313703400209223e-06
1.8929070583729741e-06
1.150725042993349e-06
7.106289039663834e-07
4.495362948694653e-07
2.925430266513455e-07
1.9563992306358534e-07
1.3368326538515157e-07
9.256069500404005e-08
6.437501299818974e-08
4.4629887503667936e-08
3.065775951809591e-08
2.0775813833361346e-08
1.384771730991623e-08
9.061167329745998e-09
5.814974020453694e-09
3.6590248876027033e-09
2.2585021178391668e-09
1.368883255804231e-09
8.160551510003193e-10
4.795739930346151e-10
2.786115368592407e-10
1.6054397285811162e-10
9.209727061035666e-11
5.2799826576906414e-11
3.0364442948102215e-11
1.7572922155486375e-11
1.0258810418673218e-11
6.048649954602977e-12
3.6016677475148314e-12
2.163026165197283e-12
1.3070912192837588e-12
7.923321422429055e-13
4.80216100155663e-13
2.9013728518469937e-13
1.743974376922396e-13
1.0427004619579134e-13
6.217533446973827e-14
3.7226781354924855e-14
2.264599284194413e-14
1.4223107642659866e-14
9.372849644322734e-15
6.5395600080429585e-15
4.814370911191429e-15
3.686578312360915e-15