# vtk DataFile Version 4.1 
COMMENT
ASCII
DATASET STRUCTURED_POINTS 
DIMENSIONS 300 300 1 
ORIGIN 0 0 0
SPACING 0.020943951023931952 0.020943951023931952 0 
POINT_DATA 90000
SCALARS U double 1
LOOKUP_TABLE default
1.179641736785282e-18
2.6406727037543113e-18
5.914364055960558e-18
1.3225925156255152e-17
2.952819658653773e-17
6.580068194584204e-17
1.4627239187168848e-16
3.241772070752833e-16
7.158904267993148e-16
1.574340246575063e-15
3.4456201623901453e-15
7.500123403678445e-15
1.6225731608483147e-14
3.486302591272949e-14
7.434107960548133e-14
1.5720372383144674e-13
3.294007289941278e-13
6.833818830729629e-13
1.4025628271311465e-12
2.8453704153494694e-12
5.7009459814957245e-12
1.1271412028622237e-11
2.1971690618026734e-11
4.219224253747751e-11
7.974739803136607e-11
1.4823378816226955e-10
2.707437200153732e-10
4.854964171284487e-10
8.540215358945745e-10
1.4724781217025333e-09
2.4864078750655917e-09
4.108571624969829e-09
6.6383831269638175e-09
1.0479795668702758e-08
1.615244871199074e-08
2.4288847227785918e-08
3.5609047242257005e-08
5.0864733917602806e-08
7.074769924995086e-08
9.576415679843401e-08
1.260857740568011e-07
1.6139916923615404e-07
2.0078500268883797e-07
2.4266203250280976e-07
2.8482732930898104e-07
3.246098116610076e-07
3.591318947841325e-07
3.856480752526432e-07
4.019066358339378e-07
4.064684141930145e-07
3.9891951802441427e-07
3.799336501539737e-07
3.5117033491086194e-07
3.150301177830244e-07
2.7431750313254465e-07
2.318789435995543e-07
1.9028230302237408e-07
1.5158695446508164e-07
1.1722636855795648e-07
8.799707160818675e-08
6.412793966745874e-08
4.539643513503262e-08
3.1262279566306084e-08
2.0998554250189046e-08
1.3809018125570944e-08
8.925090953133205e-09
5.677137590917046e-09
3.535578373431741e-09
2.1206156438772723e-09
1.1850572128535938e-09
5.803735875098511e-10
2.187346855689484e-10
4.193047321977576e-11
2.8381552445320835e-12
5.912107174605006e-11
1.7472095128353911e-10
3.2361745231946265e-10
4.917890499345408e-10
6.758511620553397e-10
8.790226978066391e-10
1.1061200363151363e-09
1.3592221556337283e-09
1.6349811545398656e-09
1.9238051128798472e-09
2.2106340345072677e-09
2.4768219305816633e-09
2.7026274723630014e-09
2.869874026485082e-09
2.964394449401415e-09
2.9779217814993555e-09
2.9091547914930387e-09
2.76384321169764e-09
2.553898494159295e-09
2.295709335377182e-09
2.0079809465922614e-09
1.709484601974174e-09
1.417083843392553e-09
1.1443074614105646e-09
9.005991915602102e-10
6.912298784931342e-10
5.17744032493609e-10
3.78749070999481e-10
2.7084487771236397e-10
1.895225931541437e-10
1.2991648604512022e-10
8.735267897471705e-11
5.7689338285721634e-11
3.747732241269729e-11
2.398712671257193e-11
1.5150469552696478e-11
9.458135129133052e-12
5.8447585820078845e-12
3.5799270253523684e-12
2.175520466804379e-12
1.3124905887954377e-12
7.861942977502812e-13
4.67405538489502e-13
2.7553885114175007e-13
1.6082671789738404e-13
9.275785380894707e-14
5.2729644929719455e-14
2.945134735802946e-14
1.6100045560046713e-14
8.573549313649895e-15
4.4214619372868284e-15
2.192570948657474e-15
1.0370434832257841e-15
4.644787624987646e-16
1.9729376732767546e-16
8.236448515387833e-17
3.8165990460006944e-17
2.3445208484920448e-17
1.8880820889598247e-17
1.6528861882785055e-17
1.3905143731428485e-17
1.0804193833450485e-17
7.707289597431477e-18
5.085077450716381e-18
3.1750210980364773e-18
1.9838032376688712e-18
1.3720120293916157e-18
1.1465528138387741e-18
1.1285394396365e-18
1.1890555012946169e-18
1.2577344760459275e-18
1.3138122669336717e-18
1.3693716856112895e-18
1.452249820292293e-18
1.5930618535844632e-18
1.817944846043827e-18
2.1464513445957328e-18
2.5927517868896164e-18
3.167965443395037e-18
3.881903008578613e-18
4.7435050334430255e-18
5.760426195928627e-18
6.939109288723599e-18
8.286880871746948e-18
9.816747191256507e-18
1.1553568712001972e-17
1.3537429708679938e-17
1.581712209885798e-17
1.842516223775435e-17
2.1327583931622654e-17
2.4348979011875024e-17
2.7087545410814704e-17
2.885678240191044e-17
2.871865417860619e-17
2.57038600333077e-17
1.934188223441149e-17
1.0637318999545645e-17
3.617103421495974e-18
7.519948733534447e-18
3.958672876296589e-17
1.2821985983351898e-16
3.1599490691349255e-16
6.616179796782235e-16
1.2394222840515566e-15
2.1343744335852553e-15
3.4297709958552143e-15
5.1837441536498994e-15
7.389261327470422e-15
9.910850973427186e-15
1.2392313653474517e-14
1.4142954780083506e-14
1.4066478876942424e-14
1.0885185118755561e-14
4.4685995820924206e-15
6.023307485150258e-16
2.551731080493464e-14
1.6652126935853054e-13
6.795332242131263e-13
2.26240925814621e-12
6.727222315681116e-12
1.8606396231628053e-11
4.8885427827502116e-11
1.2344312030430957e-10
3.0160894384718533e-10
7.157993091031157e-10
1.6536645441011782e-09
3.7230907313113273e-09
8.173004229533977e-09
1.749630874002103e-08
3.652372241586657e-08
7.433609068544621e-08
1.474797032845857e-07
2.8515268969275643e-07
5.372048618651691e-07
9.858859824421871e-07
1.7621705060328733e-06
3.0670201021291627e-06
5.196941889120495e-06
8.571525664684691e-06
1.3758299168357918e-05
2.1487479818164323e-05
3.264662815451761e-05
4.824379823146199e-05
6.932875641940008e-05
9.686635453716383e-05
0.00013156478314558753
0.00017367366550818597
0.00022278073747135314
0.0002776476588776264
0.0003361309381492629
0.0003952290645327308
0.00045127979466790365
0.0005003035893078699
0.0005384557825805784
0.0005625195415919298
0.0005703531697309395
0.0005612057449282185
0.0005358364925203326
0.0004964115452519337
0.00044619739844851015
0.0003891114695621208
0.00032921604587477806
0.00027024654708824106
0.000215248803173442
0.0001663691310301141
0.0001248049270340491
9.089188292243718e-05
6.428358607479377e-05
4.417269182285725e-05
2.950841699219928e-05
1.9178427841751602e-05
1.2139092672443909e-05
7.492196427326997e-06
4.516009721606621e-06
2.6634095261635873e-06
1.5403363443669078e-06
8.757298591283543e-07
4.907568218311836e-07
2.718178366411141e-07
1.491726419422783e-07
8.128028278354696e-08
4.403090120172535e-08
2.3727491297716585e-08
1.271670047383527e-08
6.772629250651912e-09
3.5798053537342395e-09
1.8753298565078273e-09
9.723932435223143e-10
4.985178539153266e-10
2.5249619833162854e-10
1.2628853132441044e-10
6.236388455875174e-11
3.040801263902536e-11
1.4642751209584085e-11
6.965755978091893e-12
3.2746758810026877e-12
1.5218360405886787e-12
6.993816435138712e-13
3.179441894309619e-13
1.4301287862739326e-13
6.36447632386601e-14
2.801205182611795e-14
1.2189116321496874e-14
5.246187835871717e-15
2.2368016536486715e-15
9.459323407287727e-16
3.9615316481949005e-16
1.6353682528725968e-16
6.632436711705646e-17
2.6524308869808563e-17
1.0570943327836885e-17
4.238399909602121e-18
1.7029839406954798e-18
6.630245296914397e-19
2.3707498691690776e-19
8.29879620479363e-20
3.829379613108503e-20
1.8203212610625214e-20
2.723862916481194e-21
1.6415293370965662e-21
1.2615010194994607e-20
2.4767956572394485e-20
4.542554969076986e-20
1.0241675428808902e-19
2.3652201386750897e-19
5.293819580054337e-19
3.482464069767273e-19
8.085168455547204e-19
1.8693401541943828e-18
4.304603454757432e-18
9.901540905122774e-18
2.2742508899216934e-17
5.211101238006855e-17
1.1905278206753134e-16
2.710563381731591e-16
6.146703349395022e-16
1.387450715436217e-15
3.1153149661895798e-15
6.953395457052538e-15
1.5416586850892952e-14
3.392712214275313e-14
7.405107182151952e-14
1.601724524109552e-13
3.4304686155657334e-13
7.268713309751428e-13
1.5223819271302105e-12
3.1489893239074345e-12
6.427132776443945e-12
1.2932358249640724e-11
2.563116054265462e-11
4.999254629771354e-11
9.587518795058153e-11
1.806301771555374e-10
3.3402465352799344e-10
6.05751001438544e-10
1.0763738721528763e-09
1.8724703168681213e-09
3.1862757979716578e-09
5.299172962712529e-09
8.606695541379673e-09
1.3640349101086067e-08
2.107873358089811e-08
3.173785614518079e-08
4.652925736668751e-08
6.637603849248414e-08
9.20823443765398e-08
1.241618221060236e-07
1.6264406813139246e-07
2.068922543632424e-07
2.5547552796189573e-07
3.061414545331791e-07
3.559230820933814e-07
4.0139173249458884e-07
4.390343277731693e-07
4.657008562106322e-07
4.7904328546646e-07
4.778603116535942e-07
4.622767601226252e-07
4.337198318833034e-07
3.9469825078883724e-07
3.484326312868641e-07
2.9841424669143467e-07
2.4797728966480184e-07
1.9995602122921957e-07
1.5646922866258263e-07
1.1884079711596465e-07
8.763747848358886e-08
6.278941275303869e-08
4.375591715623143e-08
2.9704189948485633e-08
1.967641023069856e-08
1.2727848819726844e-08
8.024723337806935e-09
4.89700811887508e-09
2.848981836700243e-09
1.5377567519159892e-09
7.348568484921118e-10
2.861012831344468e-10
8.066410050386012e-11
3.341597672762063e-11
7.853812736951382e-11
1.691329013377427e-10
2.775756949687021e-10
3.9353501716398926e-10
5.192163206085545e-10
6.631478755342091e-10
8.342921183763454e-10
1.0377603824404818e-09
1.2725665644730305e-09
1.5311907334350291e-09
1.8004378108557674e-09
2.0630975704650254e-09
2.3000539862187704e-09
2.4925997558179494e-09
2.6247301517875674e-09
2.685152054791565e-09
2.668718977290488e-09
2.5770465238161036e-09
2.4181880158902468e-09
2.2054270194538923e-09
1.9554182201454223e-09
1.6860274068178288e-09
1.4142532659260547e-09
1.154556284498668e-09
9.177980740722367e-10
7.108474988569489e-10
5.36777968028468e-10
3.9549133535132196e-10
2.8456892382619855e-10
2.001638126427074e-10
1.3779458924693055e-10
9.29598302348794e-11
6.154798585165195e-11
4.005870953025976e-11
2.5675406996877526e-11
1.623657920257375e-11
1.0149995222703407e-11
6.284101365645839e-12
3.859734540919499e-12
2.3550241898254634e-12
1.4286917227250809e-12
8.620154447702285e-13
5.170990081074055e-13
3.080943386593455e-13
1.8203566243225913e-13
1.0643376574017543e-13
6.142575212190448e-14
3.4890294258728796e-14
1.9441615893255725e-14
1.0590173788034514e-14
5.618642056718769e-15
2.8938409773120988e-15
1.444328346945239e-15
7.005215516791645e-16
3.348059537473673e-16
1.6344594260189996e-16
8.678515626934896e-17
5.314966206739513e-17
3.736904101012084e-17
2.825343373456618e-17
2.1504074220975408e-17
1.5871811224770993e-17
1.1212365829725548e-17
7.608116110384445e-18
5.053274767899023e-18
3.4059999038421992e-18
2.441684370512723e-18
1.9231184624345643e-18
1.6519647834363088e-18
1.4929565418775044e-18
1.3751406529872252e-18
1.2789071340699207e-18
1.217385590572439e-18
1.2185953972831051e-18
1.3120086218495253e-18
1.5207143299851503e-18
1.8585354156207102e-18
2.3304011357838402e-18
2.934044499903555e-18
3.66157770707799e-18
4.5004721294185925e-18
5.434573981452973e-18
6.446577319983373e-18
7.523403472159769e-18
8.664871205185827e-18
9.893827418872517e-18
1.1262914190855819e-17
1.2850285565233425e-17
1.4735309905687423e-17
1.6947423018402297e-17
1.9388650330304617e-17
2.1744175192646443e-17
2.3415870996349243e-17
2.3539531124940677e-17
2.1174336883000288e-17
1.577758261129679e-17
8.09133028536677e-18
1.5604976847967304e-18
4.360921750113145e-18
3.2024891398141516e-17
1.104912989271522e-16
2.7915741734744717e-16
5.931501296547015e-16
1.1235497578683339e-15
1.9536734512131602e-15
3.168737279817598e-15
4.835259941964185e-15
6.965585829221298e-15
9.462700186096938e-15
1.2044189108364606e-14
1.4161634109728686e-14
1.499104034111407e-14
1.3745804673349394e-14
1.1046323338881896e-14
1.3339762939642663e-14
4.5539819183194784e-14
1.8486658395857199e-13
6.476652742099478e-13
2.0052938573512507e-12
5.707289053785862e-12
1.5319488361988563e-11
3.9386021850899024e-11
9.788531237921845e-11
2.364222515842669e-10
5.565856365635164e-10
1.2790390906998244e-09
2.8707386583926873e-09
6.2934914171264495e-09
1.3473891960128989e-08
2.8161892351627603e-08
5.744424132480711e-08
1.1431377855497962e-07
2.2186071283886156e-07
4.1982374052987964e-07
7.743638391234982e-07
1.3919090678839519e-06
2.437630295872051e-06
4.1583838600686005e-06
6.9086502116035105e-06
1.1176047773255244e-05
1.760053618964076e-05
2.6978859265250507e-05
4.0243875602718865e-05
5.840823705987402e-05
8.246453378244233e-05
0.00011324035455301685
0.00015121673407529862
0.00019633094525436904
0.00024779689060895415
0.0003039846909689211
0.0003624014932387884
0.0004198051978792336
0.0004724614635683061
0.0005165251365707682
0.0005484966012215271
0.0005656797158810863
0.0005665586450543899
0.0005510204132106865
0.0005203776234324311
0.00047718532084793387
0.0004248874686455371
0.00036736123274137665
0.0003084431524283171
0.000251517288697852
0.00019922428650165128
0.0001533190876263965
0.00011467272781702254
8.338812267490048e-05
5.898569458266896e-05
4.0612899554423e-05
2.7239655169629467e-05
1.781500537910671e-05
1.1374586634879791e-05
7.100189719987932e-06
4.340224444718881e-06
2.603053698600416e-06
1.5349037573589788e-06
8.917544436033406e-07
5.115650529644702e-07
2.903302598311917e-07
1.632725499826301e-07
9.10853399214106e-08
5.043632683345196e-08
2.772092157820168e-08
1.511657784526479e-08
8.17256378482706e-09
4.37658552524796e-09
2.3195229603804313e-09
1.2156588356380377e-09
6.296766460269428e-10
3.222182529204338e-10
1.628660796222947e-10
8.131194954005966e-11
4.010252176695973e-11
1.9541957347827932e-11
9.4112500153728e-12
4.480434488314088e-12
2.109094124444432e-12
9.8190800904823e-13
4.521738645574592e-13
2.05970564283334e-13
9.279713227691259e-14
4.135183125036067e-14
1.8231228927229003e-14
7.956546480062071e-15
3.437854431207167e-15
1.469343625484911e-15
6.20213378898334e-16
2.583907051146102e-16
1.0646321674448932e-16
4.355036598625067e-17
1.7722923175101153e-17
7.141681425875056e-18
2.814812408140851e-18
1.0796753297210405e-18
4.1609254801344434e-19
1.660297869138326e-19
6.062993529564963e-20
1.7377947917129964e-20
9.666375220816387e-21
1.0738724342294103e-20
6.909597093638698e-21
8.490440604845879e-21
2.799695192608737e-20
6.93965794722441e-20
1.5303817780667173e-19
9.703848346112287e-20
2.3957002988203036e-19
5.686736619477348e-19
1.344038719925925e-18
3.1887352393333687e-18
7.556838243008367e-18
1.785601099176723e-17
4.20713691521824e-17
9.881324687147742e-17
2.3120627935937236e-16
5.385975475079253e-16
1.2483333844404589e-15
2.8767300576913068e-15
6.5864293077732304e-15
1.4970835718718217e-14
3.3754713748872225e-14
7.543084639495845e-14
1.6692151964394776e-13
3.6545879258446975e-13
7.909241729159155e-13
1.6904606402605224e-12
3.564922941124285e-12
7.410889142977185e-12
1.51728096009903e-11
3.0565998677527026e-11
6.053280129453055e-11
1.1774074371115826e-10
2.2472550856545276e-10
4.2050866288338417e-10
7.707325485791952e-10
1.382452314565103e-09
2.4245387893119526e-09
4.153939796499985e-09
6.946558694785167e-09
1.1329047398807117e-08
1.8004426628319508e-08
2.7860633190469946e-08
4.194795319889877e-08
6.141052108271984e-08
8.736059052983488e-08
1.206935962544509e-07
1.61857169270606e-07
2.1060597856936112e-07
2.657917284336662e-07
3.2524730968107734e-07
3.858197581408043e-07
4.4358507806467144e-07
4.942411792490441e-07
5.336311400690473e-07
5.583100041924279e-07
5.660470911276313e-07
5.561609498856399e-07
5.296164422593194e-07
4.888650683674991e-07
4.374660928306185e-07
3.79571179365821e-07
3.19376938320058e-07
2.6064399928281804e-07
2.0635296208928753e-07
1.5852825016084632e-07
1.1822323556711131e-07
8.563320763786819e-08
6.028995512725656e-08
4.12908155504557e-08
2.7521619034157e-08
1.78432549261032e-08
1.1223617224566692e-08
6.8094178569568114e-09
3.9443730511446255e-09
2.149285976282268e-09
1.0833475990368599e-09
5.038629670510681e-10
2.351351853664119e-10
1.4953708232528613e-10
1.5797722358902752e-10
2.0464504694747347e-10
2.6178962448442646e-10
3.227471713934318e-10
3.9372702154141825e-10
4.859658241377367e-10
6.097010064662481e-10
7.705691443751312e-10
9.68184646868486e-10
1.1962103681123006e-09
1.4432394392124842e-09
1.6940703474103933e-09
1.9312306827399633e-09
2.1367354894659633e-09
2.2940314762998873e-09
2.3899512273258164e-09
2.416384665002258e-09
2.3713457140647802e-09
2.2591954467790456e-09
2.0899527318591444e-09
1.8778216568013194e-09
1.639228430183373e-09
1.3907431747033923e-09
1.147248251177505e-09
9.206195238283661e-10
7.190464792031782e-10
5.46974006002755e-10
4.055381148961091e-10
2.9330894450439096e-10
2.071482124907005e-10
1.4302228787361804e-10
9.666723143806349e-11
6.405996678900127e-11
4.169697606606314e-11
2.6712301130589964e-11
1.688003474323415e-11
1.0546664912285507e-11
6.530811261030179e-12
4.016897580088014e-12
2.4585994878681153e-12
1.499368888322226e-12
9.115471685995091e-13
5.522900216020858e-13
3.331139633758211e-13
1.9965562632819506e-13
1.1864283383993658e-13
6.971836979160208e-14
4.040337963842759e-14
2.3029824399122885e-14
1.2879883332648504e-14
7.0547757840719815e-15
3.782199275069011e-15
1.9884587815555858e-15
1.0319580310411858e-15
5.363833582504929e-16
2.862671336209942e-16
1.61934550238026e-16
9.940444522405998e-17
6.60682301591345e-17
4.6269854568974234e-17
3.3017875684769155e-17
2.3421509992855598e-17
1.6324812378974265e-17
1.1185893210192334e-17
7.619535959401255e-18
5.261138797048947e-18
3.762120911387506e-18
2.8207581024426482e-18
2.2072569681866525e-18
1.7712810143094334e-18
1.4337551832111817e-18
1.1693725069971537e-18
9.862987307108474e-19
9.07821647139718e-19
9.585505915926844e-19
1.1558851127185055e-18
1.5060963511916092e-18
2.00360055524822e-18
2.631880657190874e-18
3.364973520768966e-18
4.1693053212950615e-18
5.006601967154386e-18
5.839200637440943e-18
6.638914262919441e-18
7.399363402190509e-18
8.149397819927646e-18
8.962329241199886e-18
9.953139359220356e-18
1.1255012242573474e-17
1.2969089053782203e-17
1.508871827341375e-17
1.7412519622462457e-17
1.9479102630017943e-17
2.0578806292020327e-17
1.9921555269009087e-17
1.7060798961282047e-17
1.2686117633008302e-17
9.894257695805549e-18
1.6020196275821532e-17
4.504264023971174e-17
1.204541578968083e-16
2.7828372776733143e-16
5.69657826214439e-16
1.0618702168989773e-15
1.8364003308119796e-15
2.981709486158298e-15
4.578078388010665e-15
6.671628255804569e-15
9.236206682959063e-15
1.2128503451936763e-14
1.5063014783096334e-14
1.769355512440707e-14
2.0047248650613152e-14
2.39622649883621e-14
3.718606831751048e-14
8.424390159861758e-14
2.340980334004374e-13
6.686924230750095e-13
1.8495073261125554e-12
4.91533867641201e-12
1.2615822080891901e-11
3.1460609638978964e-11
7.656210501075616e-11
1.8229077574645441e-10
4.251195011881124e-10
9.71260101570247e-10
2.1731306930538237e-09
4.758812974627548e-09
1.0192449161653605e-08
2.133741682679702e-08
4.363511548062677e-08
8.712557775979212e-08
1.6978091170380388e-07
3.22784356693108e-07
5.985290210856837e-07
1.0821607663002975e-06
1.9073402962041368e-06
3.276408965897762e-06
5.4841641587700204e-06
8.942885332666967e-06
1.4204134245847518e-05
2.197044178490455e-05
3.308784834298162e-05
4.8509245301677584e-05
6.921960914192332e-05
9.611845943221603e-05
0.00012986262012829362
0.00017068306878347515
0.00021820150883656488
0.0002712822835922968
0.0003279597138823515
0.00038547663769102384
0.00044045530785676886
0.0004891980945313872
0.0005280870283395464
0.0005540249470043465
0.0005648443955361494
0.0005596093141380112
0.0005387509202566662
0.0005040101180033682
0.0004581969262647445
0.0004048131818857486
0.000347609170059489
0.00029015228105039423
0.0002354756635717735
0.00018585131676046522
0.00014270242385070557
0.00010664188210224182
7.760407981212238e-05
5.502798199701691e-05
3.805109870776286e-05
2.568299325907878e-05
1.693960637799725e-05
1.0932062152975537e-05
6.913205319415936e-06
4.2908092400581e-06
2.618378672784022e-06
1.5737208038547332e-06
9.331915214977177e-07
5.468129171836925e-07
3.170253783928892e-07
1.8203201352813213e-07
1.035715763360211e-07
5.84043065555062e-08
3.2635364818128746e-08
1.8063164885852736e-08
9.897469763400934e-09
5.365716438835e-09
2.8765618804591915e-09
1.52432235637144e-09
7.981953874105806e-10
4.129547069000396e-10
2.1107714479488028e-10
1.065989209496482e-10
5.31978811128661e-11
2.6238617234772312e-11
1.2793100635270107e-11
6.1671036449929925e-12
2.939875816537997e-12
1.386022097535665e-12
6.462956862055417e-13
2.980758199153988e-13
1.3598421014076391e-13
6.137411343787062e-14
2.740867370686332e-14
1.2110907940078836e-14
5.2927256652622074e-15
2.2865409888373268e-15
9.765172127186555e-16
4.126456939417476e-16
1.7274832978882568e-16
7.165077375645726e-17
2.937461901426125e-17
1.186263162623475e-17
4.723592823988079e-18
1.8690502452695493e-18
7.334242575260751e-19
2.786363087155678e-19
1.0591260311254385e-19
4.653371145642373e-20
1.94914542389321e-20
2.833638278698862e-21
1.651137853961671e-21
1.1363918591433651e-20
2.1241613240713306e-20
3.978143409743125e-20
2.739227957393456e-20
7.127313805422632e-20
1.6529779426928479e-19
4.0032884694851596e-19
9.869420681684807e-19
2.415613966405976e-18
5.883399205470404e-18
1.4301985160703e-17
3.467583199417535e-17
8.37691636893046e-17
2.015180806613721e-16
4.824604831130107e-16
1.14874695092739e-15
2.718144179158838e-15
6.386438622263859e-15
1.4887363608769756e-14
3.4400773610658366e-14
7.872555665132812e-14
1.7826109443588393e-13
3.99006741345599e-13
8.820074440500721e-13
1.9236067663354053e-12
4.135193781224014e-12
8.753775402304731e-12
1.823059707648602e-11
3.731642844540023e-11
7.500362015249313e-11
1.4788967454442135e-10
2.857973957221304e-10
5.407983930334667e-10
1.0010642540412186e-09
1.8110575753367663e-09
3.199217109769833e-09
5.51314187605151e-09
9.259978676037878e-09
1.5146062204987117e-08
2.410506074435786e-08
3.729886512994324e-08
5.607202304404458e-08
8.18411783777359e-08
1.1590828318538188e-07
1.592017259670907e-07
2.1197186870313572e-07
2.7349226455497043e-07
3.418373184926995e-07
4.138123841841943e-07
4.85096375216571e-07
5.506187110801449e-07
6.051385166094284e-07
6.439383778801742e-07
6.635048747531025e-07
6.620580875090465e-07
6.39818305818825e-07
5.989546832364566e-07
5.432317655208266e-07
4.774350143010116e-07
4.0669750636127836e-07
3.3585756222566047e-07
2.689531405667629e-07
2.0891470380355562e-07
1.5746908083375292e-07
1.1522574364189146e-07
8.189119402956756e-08
5.654794816872642e-08
3.793895720828459e-08
2.471182784555422e-08
1.5595648992868687e-08
9.502681940005443e-09
5.563883644455465e-09
3.117981571792404e-09
1.676914917144095e-09
8.866064853808643e-10
4.941581575696674e-10
3.24483385495808e-10
2.6406070405073467e-10
2.479012385759186e-10
2.470484574444904e-10
2.561261007112537e-10
2.8202928736684495e-10
3.3516215178001474e-10
4.239316548455534e-10
5.522188034506678e-10
7.188804218380353e-10
9.182251386012986e-10
1.140733958697579e-09
1.3737666109538882e-09
1.6023487075449954e-09
1.8102503001374624e-09
1.981466205903349e-09
2.102000363166515e-09
2.1616632743550758e-09
2.1555008118324126e-09
2.084515438797382e-09
1.955495237009449e-09
1.7799751009234336e-09
1.5725503947822742e-09
1.3488906375023923e-09
1.1238311729301526e-09
9.098581663903553e-10
7.16176478668703e-10
5.484034844472791e-10
4.08804869964151e-10
2.96907370023295e-10
2.1029655691721394e-10
1.4542733870141572e-10
9.832331055208916e-11
6.509902030187334e-11
4.229088253580026e-11
2.7018958868573548e-11
1.702089240896415e-11
1.0603557581905878e-11
6.55241204864397e-12
4.028251125621936e-12
2.470072682582506e-12
1.5134764530726176e-12
9.2741707117136e-13
5.68174310325021e-13
3.4754483747794867e-13
2.117978981578667e-13
1.2824991955125497e-13
7.694675735705004e-14
4.5619781184836396e-14
2.6665390926477294e-14
1.5341289257672153e-14
8.682039884052034e-15
4.837674782414938e-15
2.6630140943418213e-15
1.4583499587160781e-15
8.038062867083517e-16
4.531042963173208e-16
2.6569272976598386e-16
1.6387597601748894e-16
1.062184792324983e-16
7.14482614977956e-17
4.9019763630625283e-17
3.3799993316950236e-17
2.322694066613237e-17
1.5888802042856385e-17
1.0874799083964853e-17
7.513475120668578e-18
5.284247133626233e-18
3.792427528857982e-18
2.758352043912527e-18
2.0032607621929703e-18
1.4293934462319924e-18
9.971044830207732e-19
7.026058072966101e-19
5.590122907421648e-19
5.820528670636475e-19
7.806543158762517e-19
1.1517707683914688e-18
1.6783856193889806e-18
2.3295964268018055e-18
3.0620957783069865e-18
3.823053443979372e-18
4.555115041975746e-18
5.204583456560641e-18
5.733466636750771e-18
6.1347348391097014e-18
6.447912283997852e-18
6.7695315854846355e-18
7.250944845281919e-18
8.075785308055756e-18
9.412356048138749e-18
1.13434478266515e-17
1.3787956207504377e-17
1.6444661560939372e-17
1.8807188275202477e-17
2.0318237389532935e-17
2.0747923909676897e-17
2.0892136957829267e-17
2.3687856957678456e-17
3.58265482818508e-17
6.99034449151297e-17
1.470542550349958e-16
2.9988222432084376e-16
5.752492681505598e-16
1.036187960485968e-15
1.7618100450048672e-15
2.843733353785328e-15
4.37746561373443e-15
6.4479678039722146e-15
9.1117211669078e-15
1.2386537994573288e-14
1.6283426571996876e-14
2.0971695905837743e-14
2.7305205972271912e-14
3.826237241796569e-14
6.262111147010652e-14
1.240116070728047e-13
2.8281400250593334e-13
6.886074601633541e-13
1.7049099135860623e-12
4.2034759970488335e-12
1.0250947428951828e-11
2.4686953555006015e-11
5.868286020963286e-11
1.3759000906331404e-10
3.1782090279971476e-10
7.221919274486615e-10
1.6118309217629772e-09
3.528169237952293e-09
7.564750581525646e-09
1.587104299435871e-08
3.2555516980191756e-08
6.524874642059123e-08
1.2771115658853332e-07
2.440168420588746e-07
4.549898239026294e-07
8.276609135647182e-07
1.468466915346758e-06
2.540610606778847e-06
4.285303061563242e-06
7.045402787131719e-06
1.1288216436584313e-05
1.762206845093441e-05
2.6799063618117666e-05
3.969492224142284e-05
5.72567555273486e-05
8.041210320826214e-05
0.00010993812873189753
0.00014629852856005152
0.00018946639550183655
0.00023876175801314738
0.0002927396871296541
0.00034916545216171223
0.000405104869235103
0.0004571404159322726
0.000501699327967981
0.0005354538568186613
0.0005557328308103275
0.0005608739966021519
0.0005504522714718197
0.0005253399631207653
0.0004875868033300793
0.0004401426134319222
0.0003864748709942958
0.00033015029247632097
0.00027445039938932796
0.00022207701394902422
0.0001749796688902362
0.00013430993690453412
0.00010048436761573827
7.332266947220265e-05
5.2222629324532376e-05
3.6336863637076986e-05
2.472583877370221e-05
1.6473098224917393e-05
1.0759221455097343e-05
6.898795917276733e-06
4.348971042695257e-06
2.6993491098928395e-06
1.6519799570708342e-06
9.981149556042853e-07
5.960128889083577e-07
3.520364725688184e-07
2.057832508722861e-07
1.1907849152505417e-07
6.821190573584857e-08
3.867323320473065e-08
2.1694613231633047e-08
1.203733954832355e-08
6.603844571463342e-09
3.581171959702325e-09
1.9192201702469275e-09
1.0163517805171911e-09
5.318247116264675e-10
2.749889636632291e-10
1.4051579275053144e-10
7.09666841152394e-11
3.5429705832562455e-11
1.7487549945266396e-11
8.53488057965202e-12
4.119273193161113e-12
1.9662299923445167e-12
9.28258300075935e-13
4.3346908234535287e-13
2.0023550079493904e-13
9.150465150722573e-14
4.1366297325198564e-14
1.8496342869844775e-14
8.179038721670532e-15
3.577121436467563e-15
1.5478849785457977e-15
6.62928621191191e-16
2.8094908755547563e-16
1.1770837282459757e-16
4.871017944618814e-17
1.9921298477881527e-17
8.064137856643012e-18
3.2277795965142913e-18
1.2765198425102781e-18
5.053048962365016e-19
2.0060790797857868e-19
7.264450633674225e-20
2.2412051357967905e-20
1.2093153457702529e-20
1.0983194986314726e-20
5.545329582755614e-21
6.902104232129586e-21
1.2425139151122574e-20
2.1681419912614553e-20
4.2603503113211125e-20
1.1323208617804116e-19
2.965005892958227e-19
7.434831306595496e-19
1.861268874209881e-18
4.675063550813308e-18
1.171270610046973e-17
2.922786924740939e-17
7.265154986851583e-17
1.7979713972488393e-16
4.4265931957588595e-16
1.0833331009640307e-15
2.633323659622121e-15
6.352080489232119e-15
1.5191373674323314e-14
3.598595806414873e-14
8.435280776203423e-14
1.9546332778772247e-13
4.472967164110057e-13
1.0098466001750325e-12
2.2470360436607295e-12
4.922972898678934e-12
1.0609088983332876e-11
2.246647356741584e-11
4.670599741302972e-11
9.522850235272971e-11
1.9023626346210582e-10
3.719856672696097e-10
7.112770826200518e-10
1.328628070611247e-09
2.4221049050161676e-09
4.305103576783178e-09
7.453472759916405e-09
1.255778792082199e-08
2.0571167668714836e-08
3.273634280580921e-08
5.0569421029665046e-08
7.577481456484736e-08
1.1006970680859988e-07
1.5491027976101067e-07
2.1113638022758417e-07
2.7858291359046797e-07
3.557368054234525e-07
4.39536324461258e-07
5.254037482716236e-07
6.075669482976492e-07
6.796641585318788e-07
7.355532331822442e-07
7.701835675600092e-07
7.803570846035582e-07
7.652175600299038e-07
7.263642444508777e-07
6.675707159816895e-07
5.9417821224473e-07
5.122990040228141e-07
4.2799288110515425e-07
3.465653313721247e-07
2.7208931430297616e-07
2.071911050097128e-07
1.5308247459310554e-07
1.0977935411998744e-07
7.64266582814534e-08
5.164921528814704e-08
3.386473959396264e-08
2.1519610484939093e-08
1.3234719004180942e-08
7.870568627075945e-09
4.533991404061525e-09
2.5521246731274264e-09
1.43467731255852e-09
8.370596244304856e-10
5.289055553556398e-10
3.675858392800072e-10
2.7495018661873085e-10
2.1646063843725149e-10
1.832674241630414e-10
1.7837260892542757e-10
2.0756263853502116e-10
2.7476496492210025e-10
3.8059480476530133e-10
5.225440379770261e-10
6.95549275615916e-10
8.922901241132144e-10
1.103173650109028e-09
1.3163268011324634e-09
1.517982719814266e-09
1.6934802176626806e-09
1.8288287906520296e-09
1.912550318500625e-09
1.9373770400773714e-09
1.9013945083600795e-09
1.8083511078208653e-09
1.667061812805219e-09
1.490047843648049e-09
1.291715623783495e-09
1.0864496820491197e-09
8.869671033409349e-10
7.031768579983784e-10
5.416451175499178e-10
4.0563017258215637e-10
2.955505847928022e-10
2.0970313279919816e-10
1.4505066005535265e-10
9.793936620142158e-11
6.466083165524798e-11
4.1828555340366765e-11
2.6580527878554274e-11
1.6643912681606922e-11
1.0306483162984883e-11
6.336498331190456e-12
3.883462822200968e-12
2.381184355030614e-12
1.4646506369180988e-12
9.04885865469656e-13
5.613335070238556e-13
3.489953197771157e-13
2.168374673743488e-13
1.3418180121679302e-13
8.242149119869342e-14
5.01085221372269e-14
3.008605821528336e-14
1.7819023036948105e-14
1.0410837799226478e-14
6.01001068790571e-15
3.4406260246242864e-15
1.9652887414912026e-15
1.1298033812863903e-15
6.604977010308518e-16
3.965570879471051e-16
2.460085491707452e-16