# vtk DataFile Version 4.1 
COMMENT
ASCII
DATASET STRUCTURED_POINTS 
DIMENSIONS 300 300 1 
ORIGIN 0 0 0
SPACING 0.020943951023931952 0.020943951023931952 0 
POINT_DATA 90000
SCALARS U double 1
LOOKUP_TABLE default
6.927022201698735e-19
1.4633436001878678e-18
1.7350353495911822e-18
1.961928152197934e-18
3.2420167881363196e-18
5.958471557689576e-18
9.843339959867531e-18
1.593716292523206e-17
3.0099712158494794e-17
7.114080537303096e-17
1.9365405607496122e-16
5.457522314382983e-16
1.5008039395461507e-15
3.943296509032648e-15
9.876507685529822e-15
2.3710056527338372e-14
5.502005124881453e-14
1.2458609927605606e-13
2.778235763337066e-13
6.148396465034534e-13
1.3571734129093725e-12
2.9933054764246285e-12
6.587946138052017e-12
1.4419925792525907e-11
3.125360616245653e-11
6.677669697337096e-11
1.4007184765613274e-10
2.874120654002879e-10
5.750867848954566e-10
1.1191826636705289e-09
2.114014866766979e-09
3.870121872500494e-09
6.861794776687006e-09
1.1784365636847039e-08
1.9625512038903158e-08
3.1766133334819975e-08
5.014812079314963e-08
7.757975028085732e-08
1.182924269022733e-07
1.7891073835789245e-07
2.700479783453767e-07
4.0879291587780114e-07
6.224145639448965e-07
9.536722640010994e-07
1.4681325998672285e-06
2.263753235425336e-06
3.4825284943355253e-06
5.323039415338189e-06
8.051286259925408e-06
1.2005472433672191e-05
1.7589103224400345e-05
2.5246783213752502e-05
3.541928579206301e-05
4.847906602994842e-05
6.465358028177446e-05
8.394964810083128e-05
0.00010609519988091513
0.0001305132092890698
0.00015633620499643639
0.0001824604483294254
0.00020763014951278257
0.0002305373938152991
0.0002499242699141754
0.000264678678034501
0.00027392085010262244
0.0002770799410937439
0.00027395748134031707
0.00026476868481120424
0.0002501478492314566
0.00023110481908715473
0.00020892767655297066
0.00018504052867489285
0.000160839309749968
0.00013753699202657176
0.00011604866906405498
9.69366822516222e-05
8.04200597984113e-05
6.643668331923335e-05
5.473587806905867e-05
4.497616016151093e-05
3.680722803866856e-05
2.99241815520995e-05
2.4091754867404912e-05
1.9144020037356125e-05
1.496898632177658e-05
1.1487794775810523e-05
8.635901431667927e-06
6.350267617593076e-06
4.563435287810706e-06
3.2032228921622264e-06
2.195824039466491e-06
1.470106399664613e-06
9.614888871062068e-07
6.145289526438465e-07
3.8400671498169197e-07
2.34722590555964e-07
1.404205773758762e-07
8.226703703554187e-08
4.723104817619853e-08
2.659322433718568e-08
1.4698504898340935e-08
7.985218805548033e-09
4.271488757777183e-09
2.2554998787684792e-09
1.1798895823926606e-09
6.145949745567022e-10
3.2101954659195436e-10
1.6968728364521217e-10
9.177425253308524e-11
5.137292926777886e-11
3.004456755646436e-11
1.84354911998873e-11
1.1836333758227868e-11
7.88064350393076e-12
5.373690600682803e-12
3.704291662267829e-12
2.551700107310973e-12
1.740013294096519e-12
1.1660195367895862e-12
7.63681613827103e-13
4.869307049893005e-13
3.0152607225971323e-13
1.812533526863069e-13
1.0605299501227667e-13
6.090211293346163e-14
3.493421642223051e-14
2.062220455315664e-14
1.300561807274943e-14
8.995303778803247e-15
6.789625566970107e-15
5.418331830309673e-15
4.410658006838436e-15
3.570644894796275e-15
2.836399278152925e-15
2.1996340226193604e-15
1.6649859096009802e-15
1.2332583388724085e-15
8.974562271825104e-16
6.445034171067791e-16
4.585761699967433e-16
3.2406594562115494e-16
2.2746411483362135e-16
1.581505660711307e-16
1.0836645412414181e-16
7.271949921145282e-17
4.7522980951570554e-17
3.017895150566418e-17
1.872138096327659e-17
1.1553934742313897e-17
7.356970583493467e-18
5.10196296552314e-18
4.099854559025666e-18
4.021151406132601e-18
4.854117668600767e-18
6.802896654197745e-18
1.0156997640635114e-17
1.5176030945161948e-17
2.202358019430827e-17
3.075586456795655e-17
4.133885895121862e-17
5.365407245944801e-17
6.748225473977772e-17
8.254286339261788e-17
9.881556471540706e-17
1.1755627913709142e-16
1.4360453559511613e-16
1.8972729888622156e-16
2.8387702955473573e-16
4.805005309058878e-16
8.777495160694967e-16
1.6441455774126697e-15
3.0615676219822033e-15
5.59676630243241e-15
1.0020582884124705e-14
1.7600687546977347e-14
3.0395595916102844e-14
5.166790002837422e-14
8.640417158697045e-14
1.4187019730907794e-13
2.280426582653074e-13
3.5765826521167104e-13
5.455543864036476e-13
8.070337184266893e-13
1.1553353950272288e-12
1.599228493197078e-12
2.1437999699002686e-12
2.8017425205740106e-12
3.6310018311415927e-12
4.831884062977231e-12
6.971365844368293e-12
1.1471215270587914e-11
2.163093252605458e-11
4.471248709864923e-11
9.608754010180362e-11
2.0729670635387342e-10
4.4133767344969534e-10
9.209336250510266e-10
1.8793865338245218e-09
3.7493840460547416e-09
7.3131712029121066e-09
1.394773476533752e-08
2.6010024643946485e-08
4.74170619472036e-08
8.447908324909464e-08
1.4703314234536556e-07
2.4989050430280803e-07
4.1454485131830267e-07
6.70985633022722e-07
1.059328387712711e-06
1.6308349662080107e-06
2.4477950547642085e-06
3.5817368841421104e-06
5.109592985796105e-06
7.10780642294445e-06
9.644906920923093e-06
1.2773710328925645e-05
1.6524799469769245e-05
2.0903069155723296e-05
2.5888626616877042e-05
3.144214354835052e-05
3.751304259748758e-05
4.40471829030031e-05
5.0989749068909e-05
5.827961202092933e-05
6.583391865710608e-05
7.352575333575411e-05
8.116218710583497e-05
8.847301600760908e-05
9.512009723992909e-05
0.00010073242296062578
0.00010496361439658579
0.00010755897200069863
0.00010841242374752148
0.00010759326979407598
0.00010533009332160672
0.00010195290962286483
9.780975403680195e-05
9.318426329363846e-05
8.824151929379133e-05
8.301945152638507e-05
7.746608789462739e-05
7.15058814216703e-05
6.510838863890421e-05
5.833371732088137e-05
5.134034038741304e-05
4.435664563588673e-05
3.7630918223342234e-05
3.138010572144953e-05
2.5754503473554335e-05
2.0826282702642566e-05
1.6599529223842827e-05
1.3032582120193911e-05
1.0061927371597282e-05
7.619895133071592e-06
5.643394131716977e-06
4.075242783232668e-06
2.8617826912800827e-06
1.9502956908485797e-06
1.288210141733549e-06
8.243439181166615e-07
5.112994406556818e-07
3.0783145723126516e-07
1.8033323752698855e-07
1.0314356057467029e-07
5.784595683835435e-08
3.196748143252614e-08
1.749778085062511e-08
9.531570146322777e-09
5.186273118219039e-09
2.8244326292466997e-09
1.5395479388794212e-09
8.38260168189334e-10
4.5427082697462093e-10
2.4386732950638013e-10
1.290093169754075e-10
6.68993265035584e-11
3.383555352713865e-11
1.6613694438098118e-11
7.886049586885608e-12
3.6043796374004074e-12
1.5801741856998946e-12
6.619211104161715e-13
2.639387493450513e-13
9.989412899247867e-14
3.5901192588117896e-14
1.2380610765141796e-14
4.243310142282676e-15
1.562304989787786e-15
6.804947231285881e-16
3.571698215900379e-16
2.0819130573792147e-16
1.2365661276787691e-16
7.150950710887975e-17
3.9654120624780664e-17
2.1370227733495792e-17
1.1723978095431721e-17
6.653030780688327e-18
3.4047949637437724e-18
1.1423248643763259e-18
2.4816945326138605e-19
1.7570263969098694e-18
1.4310983981015062e-18
6.808510509292245e-19
2.5525604849922744e-19
7.878272885753826e-19
1.820727263701746e-18
2.5216521959841462e-18
2.993802863551801e-18
5.067996913360339e-18
1.4729779193838316e-17
5.215554812400921e-17
1.796617889730397e-16
5.687856608418753e-16
1.6549437773851069e-15
4.485893714037115e-15
1.1491443659334003e-14
2.8169200314621244e-14
6.678374784313828e-14
1.545213264294019e-13
3.5147469314656346e-13
7.900597164832987e-13
1.7603183327895685e-12
3.891288102425313e-12
8.528204374594956e-12
1.8496113997148747e-11
3.959529723204095e-11
8.341259523619653e-11
1.7235113044099002e-10
3.481164996504209e-10
6.850986741486222e-10
1.309931363718431e-09
2.427830903112022e-09
4.355321192582376e-09
7.558678557877753e-09
1.2700175787756552e-08
2.0703531470690896e-08
3.286991317073887e-08
5.110924771297735e-08
7.839827230206688e-08
1.1963278493484865e-07
1.8310067232547815e-07
2.8285851861895096e-07
4.4234188713538095e-07
6.995629437880153e-07
1.1142068064467127e-06
1.7767410556368792e-06
2.819168678508407e-06
4.426159766546302e-06
6.8439897216118995e-06
1.038325069134086e-05
1.5410286809621313e-05
2.232257473712003e-05
3.1505580450331217e-05
4.327312612571189e-05
5.779911677584655e-05
7.505365091782737e-05
9.475864266305793e-05
0.00011637535127231187
0.00013912873881737552
0.00016206379065710521
0.0001841208648530066
0.00020421452342338084
0.00022130445024974829
0.00023445574039003412
0.0002428940703514668
0.00024606386311697945
0.00024369222122042612
0.000235850338932348
0.00022299330986735188
0.00020595544470250628
0.0001858851901913169
0.000164120070495407
0.00014202155266226745
0.00012080430051033175
0.00010139780494050179
8.436943383553353e-05
6.992017772978874e-05
5.7944562975342843e-05
4.813119252539032e-05
4.007434305638064e-05
3.337037130924918e-05
2.7682495696844405e-05
2.276942611762528e-05
1.8483292183195606e-05
1.4748004165978748e-05
1.1530207271065972e-05
8.812524775599447e-06
6.574670149764133e-06
4.783949227582703e-06
3.3937554594713653e-06
2.3472381600726357e-06
1.5831875652070939e-06
1.0418447701303426e-06
6.69301094393023e-07
4.20027738170842e-07
2.576846024390562e-07
1.5466439979023312e-07
9.089601728910749e-08
5.235391754886028e-08
2.958427567916956e-08
1.642244903586658e-08
8.970096350407245e-09
4.831651887623391e-09
2.574151436975948e-09
1.361996262478389e-09
7.195545986157e-10
3.822006034473048e-10
2.0580700244135392e-10
1.133777170697098e-10
6.445853124949944e-11
3.806938796085893e-11
2.3420125204337408e-11
1.49765595091709e-11
9.890753204248994e-12
6.6830998708936274e-12
4.572530474930748e-12
3.1367686734192964e-12
2.139309865689583e-12
1.4407820111601873e-12
9.534414117675124e-13
6.179615314661358e-13
3.917541106236644e-13
2.431373770015596e-13
1.48327913279317e-13
8.969176903491613e-14
5.45056881827247e-14
3.3922077396679155e-14
2.20502917389019e-14
1.5155058629849242e-14
1.0992147087601174e-14
8.291255144204543e-15
6.379186399269405e-15
4.923305307358128e-15
3.7690376639302555e-15
2.844974763426684e-15
2.112734633935518e-15
1.5439555059325221e-15
1.112083330971627e-15
7.91099885990727e-16
5.567021929562603e-16
3.8771445772368987e-16
2.6688815493271916e-16
1.8097280219254735e-16
1.2024985950452066e-16
7.779606140292145e-17
4.870450505067287e-17
2.9415836049534164e-17
1.7234694427402487e-17
1.0042641630236603e-17
6.17239539582585e-18
4.380989277086282e-18
3.852708669658503e-18
4.175888671699454e-18
5.266381307294074e-18
7.245241220074031e-18
1.0306354185942446e-17
1.4619892321448152e-17
2.0304364937842492e-17
2.746834302500247e-17
3.62880283891841e-17
4.7071415686356323e-17
6.02866122929187e-17
7.66137897349752e-17
9.721047500987791e-17
1.245275589432049e-16
1.641310456451284e-16
2.280349316954083e-16
3.400562994164267e-16
5.438144873438591e-16
9.145529937342536e-16
1.5775173824660073e-15
2.7388520630849675e-15
4.740426071204179e-15
8.157588656696297e-15
1.396721905268581e-14
2.3819201131858938e-14
4.0441923404748334e-14
6.819425107771662e-14
1.137362756320769e-13
1.8672896835281519e-13
3.004036852460374e-13
4.718091204143979e-13
7.21634332146494e-13
1.0738841700851104e-12
1.5566361350373711e-12
2.2071593034313763e-12
3.088819205714355e-12
4.335366782999163e-12
6.2542277161040574e-12
9.551666876006524e-12
1.5803196094022004e-11
2.840801129174061e-11
5.44821869888445e-11
1.0853976706575145e-10
2.1951118192905613e-10
4.438515332997703e-10
8.894799056492282e-10
1.7584300696043206e-09
3.4207788706615852e-09
6.5389376040180925e-09
1.226964374004646e-08
2.258004887144975e-08
4.0721839537251e-08
7.190907737918576e-08
1.2423496772105113e-07
2.0983207667866538e-07
3.462220911779791e-07
5.577117734693516e-07
8.765776222712685e-07
1.3436644861217213e-06
2.007943086775589e-06
2.9245838717557067e-06
4.151268431944512e-06
5.742811952232002e-06
7.744693803957007e-06
1.0186687350406678e-05
1.3078249181080774e-05
1.6407412824143147e-05
2.0144389969534138e-05
2.4249812433618953e-05
2.8685721461613274e-05
3.342554115528005e-05
3.84581551120998e-05
4.378168104768967e-05
4.9385113559174314e-05
5.522045005732917e-05
6.117304075020104e-05
6.704172244890332e-05
7.254064709806291e-05
7.733023123117129e-05
8.107569336819292e-05
8.352071239900188e-05
8.455495062616268e-05
8.425179702152083e-05
8.285912332803247e-05
8.074012882408199e-05
7.82788440872368e-05
7.577877830141239e-05
7.338740876183125e-05
7.107120501218007e-05
6.864826018334027e-05
6.586527143141273e-05
6.249078779144539e-05
5.8393118696654476e-05
5.357981887716231e-05
4.8191796062392275e-05
4.2461552675856176e-05
3.665531050197746e-05
3.101979787254995e-05
2.5747717041103806e-05
2.096577442481297e-05
1.6740501133951965e-05
1.309293452126052e-05
1.0013857697595983e-05
7.474861021539676e-06
5.434477002293167e-06
3.841200351029894e-06
2.635781736146092e-06
1.7543182242622002e-06
1.1323471408342413e-06
7.091972483276642e-07
4.3158819891511824e-07
2.55774839273436e-07
1.48072413114375e-07
8.406238592581827e-08
4.700956065688207e-08
2.601933573461537e-08
1.4319253197668478e-08
7.865390770705091e-09
4.32297502773042e-09
2.379189774722439e-09
1.3095918408051802e-09
7.187706052087804e-10
3.9161646953091893e-10
2.106841206703156e-10
1.1128334126648072e-10
5.738477658346528e-11
2.8732321083125143e-11
1.3895936660809784e-11
6.4580383728325256e-12
2.868367133552158e-12
1.2100135676016682e-12
4.811745504320503e-13
1.7870157675350043e-13
6.131564402638646e-14
1.9283826302512582e-14
5.656801583674608e-15
1.7483608755750389e-15
7.593821427119923e-16
4.955444378119689e-16
3.6604368346627026e-16
2.585671133847656e-16
1.6912506342400212e-16
1.0334517087620425e-16
6.018378166182126e-17
3.405253593934445e-17
1.8617744931511633e-17
9.375200170977354e-18
4.2298885183542306e-18
2.1605784684222928e-18
4.64603156307828e-18
2.3489844244519253e-18
6.545432638176394e-19
5.896773429019504e-20
4.4692756750412e-19
8.839883370935814e-19
7.555781511773622e-19
3.6535795968280695e-19
4.135451085469644e-19
2.53892139183376e-18
1.420767900512813e-17
6.217542910517475e-17
2.252783928447192e-16
7.148926473708496e-16
2.0667296374437913e-15
5.579821484783927e-15
1.429649206409799e-14
3.5166955465733825e-14
8.380634239062509e-14
1.9489860223070546e-13
4.4480921892950097e-13
1.0003429106031378e-12
2.2228084512983054e-12
4.8871001918841265e-12
1.0634012964143951e-11
2.2878442491650428e-11
4.856459185381259e-11
1.013941159660601e-10
2.074114146487922e-10
4.1399026285110375e-10
8.031217377715404e-10
1.5092495486354893e-09
2.740777290871557e-09
4.8035088470809865e-09
8.125610595311922e-09
1.3290644722718137e-08
2.1102406215663065e-08
3.2737085805744804e-08
5.008672276497378e-08
7.646073770889443e-08
1.1788231653729839e-07
1.852821227351356e-07
2.97937563003153e-07
4.885068677199526e-07
8.099183633457747e-07
1.3441191860169804e-06
2.2121606895135474e-06
3.5842164342743476e-06
5.686926535505762e-06
8.804209804027864e-06
1.3266954418640865e-05
1.9427565855781047e-05
2.7617876456701693e-05
3.8093454995271585e-05
5.097291376832429e-05
6.618535675943865e-05
8.344018687786919e-05
0.00010222942789516873
0.00012186391043537344
0.00014153408298666568
0.00016037850118355484
0.00017754241544975719
0.00019221654423373028
0.00020365899582803855
0.00021121489538667243
0.00021435179808457048
0.0002127211461865642
0.0002062394301820206
0.00019516507819002576
0.00018013768605570866
0.00016215104313146495
0.00014244999737876628
0.00012236646754752741
0.00010313150052947628
8.570939382551804e-05
7.069320747958673e-05
5.828169065602076e-05
4.8333594401334806e-05
4.047529527814679e-05
3.422769888187385e-05
2.9120035326387366e-05
2.4768623011581507e-05
2.0912810486219044e-05
1.7412966557250783e-05
1.422323126432527e-05
1.1353869290418975e-05
8.835622682725609e-06
6.693613246453215e-06
4.933263409248183e-06
3.5368647717943274e-06
2.4674009655405988e-06
1.6758607329086152e-06
1.108991700255056e-06
7.156081702595266e-07
4.5068666148381165e-07
2.7729541460686794e-07
1.6684429048013224e-07
9.827249039984705e-08
5.672674225836751e-08
3.213067728877621e-08
1.788414469211283e-08
9.80015846134784e-09
5.2997759549303075e-09
2.837448166779346e-09
1.5103734670232886e-09
8.037373470423295e-10
4.305127481066084e-10
2.339696107178633e-10
1.3010789813718296e-10
7.461069788870408e-11
4.4372216368423444e-11
2.742773470218921e-11
1.7587690446280812e-11
1.1633395432429073e-11
7.872385222233157e-12
5.39977973568467e-12
3.720547698627515e-12
2.555045643031408e-12
1.738014469430322e-12
1.165854017797105e-12
7.691992062274839e-13
4.98819045259059e-13
3.1842307823955096e-13
2.0090213287532095e-13
1.2616414332934471e-13
7.965473947817114e-14
5.1168197199032043e-14
3.381780591279501e-14
2.3147575360049177e-14
1.639829371347811e-14
1.1935290071686644e-14
8.829321432099373e-15
6.568690128203799e-15
4.874172593443242e-15
3.5881372895962725e-15
2.6131215069748536e-15
1.8807971066826263e-15
1.3379780829549316e-15
9.41156599034221e-16
6.546559498669111e-16
4.499003214867835e-16
3.04750558231326e-16
2.0262107510272067e-16
1.3142778119136052e-16
8.251332921927878e-17
4.968244179351117e-17
2.8429713472258003e-17
1.5389381670328173e-17
7.992989132370707e-18
4.2894479940361385e-18
2.8642225070446287e-18
2.792297290087832e-18
3.574203502510281e-18
5.0324524085380716e-18
7.178765658931227e-18
1.0088461890237145e-17
1.3826152499933973e-17
1.8451646317602174e-17
2.4101874806468922e-17
3.110941231533936e-17
4.0102904717878e-17
5.2059886776846645e-17
6.835652126276932e-17
9.096918611673622e-17
1.2309348168273055e-16
1.705075813680275e-16
2.439840598070411e-16
3.629752177062029e-16
5.608136747518562e-16
8.921166127170255e-16
1.4444943618741489e-15
2.3597147961947055e-15
3.874769695019484e-15
6.400982555856521e-15
1.0668545844545644e-14
1.7972258982943245e-14
3.0557471634238556e-14
5.217773592216479e-14
8.883275013939661e-14
1.4965774944025404e-13
2.4789807966313224e-13
4.01905416073324e-13
6.36218121064418e-13
9.83190612947734e-13
1.4865857252480982e-12
2.2105213491327635e-12
3.261052221334184e-12
4.8351390105895886e-12
7.325999061719137e-12
1.1540904424649381e-11
1.9138703497530923e-11
3.349030486584202e-11
6.134256254288764e-11
1.1598681891332598e-10
2.2319993215340633e-10
4.3219612382003774e-10
8.354297518418335e-10
1.6036153927242274e-09
3.046098335675301e-09
5.711936311353023e-09
1.0553635256230303e-08
1.9182614220057383e-08
3.425117457270016e-08
5.999638744646518e-08
1.0297143098814996e-07
1.7296273631323118e-07
2.8404048572844183e-07
4.5561290749787527e-07
7.132572291406967e-07
1.0890014348910503e-06
1.6206671848678828e-06
2.3499059517136607e-06
3.31872143024822e-06
4.564606499099862e-06
6.1149179442500005e-06
7.98167317340856e-06
1.0158395023439472e-05
1.262070073204523e-05
1.53317833701624e-05
1.8252650179819727e-05
2.1355105535780654e-05
2.4633486880949003e-05
2.8109879336170672e-05
3.1827843174591276e-05
3.5832200373228106e-05
4.0137042223179135e-05
4.468974203064148e-05
4.934336864604114e-05
5.385113180484843e-05
5.789261279050457e-05
6.113248721483908e-05
6.330045837971675e-05
6.427038720957337e-05
6.411191579709679e-05
6.309254870365624e-05
6.162213214836681e-05
6.01508587454627e-05
5.9049309093974045e-05
5.8507434528209435e-05
5.848467443806894e-05
5.872671463123612e-05
5.88419637853353e-05
5.841141445273659e-05
5.709657851388633e-05
5.471444252853282e-05
5.126302537194617e-05
4.6899306980058275e-05
4.188562091966171e-05
3.6526389378681786e-05
3.1113996120130254e-05
2.5893991509300062e-05
2.1050488551873324e-05
1.6706320021776734e-05
1.293066318990726e-05
9.748464734587304e-06
7.149011110435637e-06
5.093468055447448e-06
3.5222438212274194e-06
2.3627674077825226e-06
1.5374542237358145e-06
9.709892824805097e-07
5.959522639823728e-07
3.56187137964739e-07
2.0789727692019054e-07
1.1893348983595453e-07
6.697840017869296e-08
3.731205900289048e-08
2.066385728251384e-08
1.142879064807749e-08
6.334521632566196e-09
3.5243393465449957e-09
1.967202809435508e-09
1.0984843174748868e-09
6.107339052252902e-10
3.3606870259312427e-10
1.8184343424005866e-10
9.61256177789848e-11
4.9333850805652906e-11
2.4434820025262694e-11
1.1609264846797371e-11
5.25602598248673e-12
2.249521216226431e-12
9.004411002890669e-13
3.318662208154926e-13
1.098660336805967e-13
3.132752148240636e-14
7.170470892278954e-15
1.2935911598870621e-15
4.921880383210876e-16
6.101844375733627e-16
6.589684048817738e-16
5.626039395989563e-16
4.1119893676900835e-16
2.7114261575615915e-16
1.6663543107666e-16
9.725541380827492e-17
5.4149608210099226e-17
2.86858603959471e-17
1.4788951524336746e-17
8.005451815048844e-18
1.3153349271901366e-17
6.1711598008727615e-18
2.4299752753177646e-18
1.1161840628000933e-18
1.0070935617478273e-18
8.658069768749532e-19
4.045060866030149e-19
5.931760854653217e-20
2.1052185156932445e-20
5.558313746316402e-19
4.785216182717053e-18
2.4885967342477692e-17
9.738224584170711e-17
3.2426885319984313e-16
9.764040013723674e-16
2.735931890624968e-15
7.244886113726606e-15
1.832499702312587e-14
4.465458625125024e-14
1.0558121524899017e-13
2.4366004147739616e-13
5.516277538367379e-13
1.2303757299321407e-12
2.71313078812115e-12
5.928610732954735e-12
1.2846271169109052e-11
2.7565338884865075e-11
5.838121805655491e-11
1.2145814985461473e-10
2.468573277415253e-10
4.875284146713763e-10
9.312393850339508e-10
1.714204885448343e-09
3.0338136227366326e-09
5.157876786609051e-09
8.432362815612333e-09
1.33034577508739e-08
2.0398553890748492e-08
3.075864187512358e-08
4.6381646384978815e-08
7.131598294772596e-08
1.1362151093087262e-07
1.8856762754529863e-07
3.234302928852566e-07
5.641287989459399e-07
9.836354442150714e-07
1.6915135310328175e-06
2.8430429277088807e-06
4.645250513209103e-06
7.356070905377988e-06
1.1272387458931587e-05
1.670357720019543e-05
2.3929983858612036e-05
3.3150411703002344e-05
4.442815997726475e-05
5.764914144290721e-05
7.250571485364523e-05
8.851439978680472e-05
0.00010506530912565152
0.00012148944486470936
0.00013712233843780097
0.00015134366032203405
0.00016358365484255022
0.00017330469967592085
0.00017998188477188874
0.00018311163124492034
0.00018226749724411406
0.00017720011676695626
0.00016795310700031354
0.00015495074911014737
0.0001390149601144547
0.00012128935822496408
0.00010307939703659899
8.564693970020646e-05
7.001347976986794e-05
5.6822777771709205e-05
4.629337828284255e-05
3.8263066090184956e-05
3.230161919030647e-05
2.7853499098778913e-05
2.4371354363833925e-05
2.14119381580707e-05
1.8682402144509033e-05
1.604056793466986e-05
1.3463193939155401e-05
1.0999856114528276e-05
8.727859030090511e-06
6.718072486490081e-06
5.015417257156311e-06
3.6328375717880835e-06
2.554853288558565e-06
1.7460938834072092e-06
1.16094142630325e-06
7.517754781567987e-07
4.746938874029707e-07
2.9262233688800196e-07
1.7631679977062636e-07
1.0396837656407815e-07
6.00723541879875e-08
3.405626233135198e-08
1.8972736018809957e-08
1.040578582887077e-08
5.631934500096478e-09
3.01742794234905e-09
1.6070448401689336e-09
8.554961928110272e-10
4.5838338395532807e-10
2.492602946134408e-10
1.3879684814846064e-10
7.981015545319456e-11
4.7684266166220184e-11
2.967398310697436e-11
1.9193106797403736e-11
1.282379932024843e-11
8.77404395704786e-12
6.088818874960015e-12
4.2471650809642565e-12
2.9552804818345416e-12
2.039447541953218e-12
1.3903898185241038e-12
9.34479616146022e-13
6.190251328819874e-13
4.0482410001136306e-13
2.6230880958810335e-13
1.693421356842445e-13
1.0970766794475717e-13
7.188282035289397e-14
4.7962429208363083e-14
3.27193816929841e-14
2.2820868672015345e-14
1.62117130856596e-14
1.1658181953881271e-14
8.430619924637973e-15
6.095655970690166e-15
4.388114125410616e-15
3.1366605046792372e-15
2.2230895449407965e-15
1.5611251341518279e-15
1.0856536947531484e-15
7.470518420098392e-16
5.077736358191427e-16
3.39870802542057e-16
2.2292991611155054e-16
1.4228571130452348e-16
8.750574713995461e-17
5.116614260898582e-17
2.7922151450211776e-17
1.3853199254182165e-17
6.040530005923906e-18
2.319607793605163e-18
1.1411152138507584e-18
1.4770845961253967e-18
2.724585883151474e-18
4.586478306319791e-18
6.939532406315045e-18
9.723618658022542e-18
1.2891367795860602e-17
1.6441596284894197e-17
2.0527469616144167e-17
2.559716630385988e-17
3.251118383208973e-17
4.2603655962408e-17
5.771930127518291e-17
8.0346428571343e-17
1.1404234428918837e-16
1.6436402157039964e-16
2.404460737011452e-16
3.572439164506084e-16
5.384311733404142e-16
8.20317848963441e-16
1.2584308091352525e-15
1.941196063044395e-15
3.020092635356171e-15
4.773017728793106e-15
7.727001960408408e-15
1.287626460210256e-14
2.203892902452225e-14
3.839661738328127e-14
6.725259693315221e-14
1.1702807826420263e-13
2.0050658729958883e-13
3.363698395131905e-13
5.512207581663329e-13
8.826983545500522e-13
1.3851960537579832e-12
2.1415187565716035e-12
3.2873008936544508e-12
5.0615265437717934e-12
7.908599617715764e-12
1.2679897370209256e-11
2.1024495492029332e-11
3.61359778796247e-11
6.416370411004927e-11
1.1685199903073892e-10
2.1642068657709308e-10
4.0447144147797613e-10
7.579782376863432e-10
1.4174307281825153e-09
2.635196834956052e-09
4.856323456096827e-09
8.84919631648908e-09
1.590904519415314e-08
2.8161541243794433e-08
4.899364726616685e-08
8.362987330374319e-08
1.3984847559710568e-07
2.2878857466930388e-07
3.657334644922147e-07
5.706726007030589e-07
8.68361766339542e-07
1.2875494580009982e-06
1.8590627186120037e-06
2.6125964744322675e-06
3.572360279359497e-06
4.752194912574919e-06
6.151295705795055e-06
7.752099512676204e-06
9.521967678268725e-06
1.1419783319785172e-05
1.3407340887667705e-05
1.546354445727092e-05
1.7597393798624448e-05
1.985429768898969e-05
2.2310331556069354e-05
2.5051358879792584e-05
2.8138515908668553e-05
3.1567474056394343e-05
3.523419197047074e-05
3.892206870410299e-05
4.232244542829887e-05
4.5091745908716946e-05
4.693598943492262e-05
4.770100182658477e-05
4.74395061519911e-05
4.642852804799946e-05
4.5123230207025576e-05
4.405318527915674e-05
4.368740549577331e-05
4.430725751085914e-05
4.592605656575707e-05
4.828000428979153e-05
5.0892193796541694e-05
5.3188325790832666e-05
5.4628190013758017e-05
5.481572569828945e-05
5.356176351454381e-05
5.089166888483041e-05
4.700742715340037e-05
4.222418735675625e-05
3.6902738706126013e-05
3.139368356044982e-05
2.600036732746029e-05
2.096005173180088e-05
1.6438688583092246e-05
1.2534038048246302e-05
9.283344254746574e-06
6.6735998182338284e-06
4.653502390712746e-06
3.1463493185335285e-06
2.0627787677093475e-06
1.312021084157063e-06
8.104956903446835e-07
4.871491198640931e-07
2.856275170200296e-07
1.6393741277443895e-07
9.251652850282569e-08
5.1609987726534844e-08
2.8628850304469344e-08
1.588665666492063e-08
8.864133766952173e-09
4.988341937512411e-09
2.831757288030715e-09
1.616600219616655e-09
9.227792083189175e-10
5.228091393091105e-10
2.9169161677217724e-10
1.5905432241953278e-10
8.417220142117727e-11
4.295061814423225e-11
2.0997362653974535e-11
9.766164459176708e-12
4.284790823265161e-12
1.7525029279919273e-12
6.562177668365468e-13
2.1807191079100403e-13
6.047967552709452e-14
1.2018735741373766e-14
9.202690712672796e-16
1.492308080813346e-16
1.006386820453345e-15
1.4380463801965479e-15
1.3634618455465056e-15
1.059468899179909e-15
7.304739527926389e-16
4.647127454879595e-16
2.786534252740643e-16
1.5929798791134623e-16
8.761354220152427e-17
4.710061751378022e-17
2.5187890723866205e-17
3.959755135034821e-17
1.9399214924805515e-17
9.218086989981755e-18
4.750327780966279e-18
2.7929595849225283e-18
1.502023460390015e-18
5.379745658231139e-19
9.575722443556059e-20
1.048530672389449e-20
2.607986197771506e-19
2.5080520665539344e-18
1.2486690143498016e-17
4.6960138153459855e-17
1.552048409581459e-16
4.744688405602176e-16
1.360413697958343e-15
3.6848742870657036e-15
9.502704119853264e-15
2.351146329747878e-14
5.6186494746890455e-14
1.3046335531018853e-13
2.9605086443233706e-13
6.604784343802624e-13
1.4572317708972533e-12
3.1953937936290593e-12
6.982718088316899e-12
1.5197810856577515e-11
3.2813210597103685e-11
6.981901446641762e-11
1.4528792658573872e-10
2.9349299457871484e-10
5.719024521365715e-10
1.069648364093097e-09
1.913386920031017e-09
3.266454884537751e-09
5.319589685527183e-09
8.281931726188559e-09
1.2405837629411318e-08
1.8124224383069376e-08
2.6447328396334512e-08
3.985222442376407e-08
6.398781391787124e-08
1.1058156452986148e-07
2.0192788896736022e-07
3.772003737095699e-07
7.004854953351843e-07
1.2698119753544679e-06
2.225525812491303e-06
3.755244781348418e-06
6.091645082059652e-06
9.499064535273769e-06
1.4246062108149489e-05
2.0564169783458402e-05
2.859795101242489e-05
3.8356895049908304e-05
4.9683312166458724e-05
6.224959281389635e-05
7.559134332560007e-05
8.917092801553844e-05
0.00010245289758254228
0.00011496482481275312
0.00012631969432587838
0.00013619068985305007
0.0001442514476779078
0.00015011496979786465
0.00015331180617395823
0.00015333676315739701
0.00014976575730205386
0.0001424114579816452
0.0001314628503638338
0.00011755141718495597
0.00010170786882866513
8.521027777536757e-05
6.936219228857272e-05
5.526283342782568e-05
4.3632342948411956e-05
3.473444464758739e-05
2.84062577268841e-05
2.4173231738667898e-05
2.1406960457967496e-05
1.9479719946840016e-05
1.78800703036733e-05
1.6272315488013663e-05
1.4501411026282558e-05
1.2558245636046113e-05
1.0525648344695803e-05
8.523759889137731e-06
6.6673113454140565e-06
5.040067482013672e-06
3.685667912828982e-06
2.6105279662586617e-06
1.7933705233228089e-06
1.1966535462955334e-06
7.767172052279795e-07
4.911259906754524e-07
3.0296242466622774e-07
1.825850637743399e-07
1.0765123880885232e-07
6.217751242117103e-08
3.5228514371955005e-08
1.9607619663309265e-08
1.0738464730770881e-08
5.7988991563193865e-09
3.0962718973437596e-09
1.6409301571907692e-09
8.677823725021644e-10
4.6123659577611176e-10
2.4866760015199846e-10
1.3745181259501295e-10
7.874100020387079e-11
4.714335560362982e-11
2.9600342979082073e-11
1.9435585542630527e-11
1.3236296559600522e-11
9.246972192600528e-12
6.552011473444493e-12
4.6622949388258634e-12
3.3062052249529654e-12
2.3238244849886767e-12
1.6134666179768774e-12
1.1049426803830164e-12
7.464582496933749e-13
4.983028185941934e-13
3.29737040179409e-13
2.1723961490727057e-13
1.4324776673503094e-13
9.505099335322258e-14
6.37569218387676e-14
4.335089212062522e-14
2.9890403037717544e-14
2.085928032098882e-14