# vtk DataFile Version 4.1 
COMMENT
ASCII
DATASET STRUCTURED_POINTS 
DIMENSIONS 300 300 1 
ORIGIN 0 0 0
SPACING 0.020943951023931952 0.020943951023931952 0 
POINT_DATA 90000
SCALARS U double 1
LOOKUP_TABLE default
6.902022700044974e-19
2.4830263934813882e-19
3.3272582153597877e-19
1.698939974629668e-18
4.869356546471151e-18
1.1232560435099959e-17
2.5820090089445384e-17
6.165503785879518e-17
1.4817462021276395e-16
3.521923602158909e-16
8.295718768474427e-16
1.9447755322915913e-15
4.539341872696244e-15
1.052969462937882e-14
2.422736645029356e-14
5.521767504227528e-14
1.2454457700623485e-13
2.7779395540595203e-13
6.122998838887988e-13
1.332627961412811e-12
2.861294616828737e-12
6.0546081817589166e-12
1.261324475372091e-11
2.5843600310570107e-11
5.203272738007758e-11
1.028637477242798e-10
1.9953770107904261e-10
3.7959244151394534e-10
7.07804503320575e-10
1.292947196828808e-09
2.3123472964026173e-09
4.045694630852181e-09
6.9176591664404504e-09
1.1544532960771029e-08
1.8772452825610186e-08
2.9684095939892845e-08
4.5540439996240614e-08
6.762267114818534e-08
9.696054072821899e-08
1.3399284272611514e-07
1.7830928570347284e-07
2.2875137306273744e-07
2.842451489275649e-07
3.4571123534041817e-07
4.1916686165694103e-07
5.197011887651085e-07
6.755207350758492e-07
9.310339458559489e-07
1.3483219881712912e-06
2.007485492793689e-06
3.007985172624993e-06
4.474401684355638e-06
6.569912882925603e-06
9.518336605555814e-06
1.3630792287653864e-05
1.9327136177370622e-05
2.713767149142684e-05
3.766990722657683e-05
5.153020990731398e-05
6.920110124438774e-05
9.08894763861187e-05
0.00011637506717429204
0.00014489726603643754
0.00017511801872538684
0.00020518723499988564
0.00023291654897882638
0.00025604187468065786
0.00027253167855907504
0.00028088305080113603
0.0002803463696976424
0.00027103280989133655
0.0002538840217250974
0.00023051336098349557
0.00020295495478473867
0.00017337364214017818
0.00014379171511291042
0.00011587796714720075
9.082511724635665e-05
6.931949399531281e-05
5.158799003875749e-05
3.7495777383465115e-05
2.666530232662226e-05
1.8591262350966742e-05
1.2734653770767051e-05
8.588328174188713e-06
5.714297035706836e-06
3.7579870819552858e-06
2.446663734528415e-06
1.5789880692046561e-06
1.0111402134013113e-06
6.430259541670227e-07
4.063834132858855e-07
2.55393830601424e-07
1.596958275982699e-07
9.939269865756495e-08
6.157810861675213e-08
3.796087635437478e-08
2.326211880484849e-08
1.4146335320868294e-08
8.517698542370435e-09
5.063422624604947e-09
2.961871140695434e-09
1.6984841906284808e-09
9.50829598540195e-10
5.171164174908453e-10
2.716398451372031e-10
1.3680620289753277e-10
6.539897893539752e-11
2.924727610219077e-11
1.1964378971292107e-11
4.314160135891831e-12
1.2893773674665873e-12
3.046011209350195e-13
1.0738343923069827e-13
1.4340800249897985e-13
2.0097239162032175e-13
2.216268935834845e-13
2.056727941634764e-13
1.6916201407833617e-13
1.271167348862326e-13
8.895168862210816e-14
5.880076309994101e-14
3.725954224524627e-14
2.308767910954878e-14
1.4415379509159498e-14
9.434190508779265e-15
6.7015918880665324e-15
5.207488577029765e-15
4.320314251910566e-15
3.690113246045094e-15
3.1516050024906584e-15
2.6462295798807113e-15
2.167789515820644e-15
1.7290781340833573e-15
1.344236399733908e-15
1.0214513490763326e-15
7.616005472792809e-16
5.597328440826597e-16
4.074426180805145e-16
2.9508791325770106e-16
2.1340751192018593e-16
1.5445524123903305e-16
1.1195642019403198e-16
8.126186973800924e-17
5.907727380902456e-17
4.311372560728766e-17
3.176052410200456e-17
2.3836050324646703e-17
1.8433493107331557e-17
1.4849036773842913e-17
1.2563180643381875e-17
1.1242113401595005e-17
1.0734365425261581e-17
1.1054290463921855e-17
1.2361595633585321e-17
1.4957274191613402e-17
1.9314283484382317e-17
2.6143355301501434e-17
3.646325869105387e-17
5.160958205246765e-17
7.309063993961398e-17
1.02199998173588e-16
1.393377331428566e-16
1.8308633624881242e-16
2.2923059807667775e-16
2.70087777226931e-16
2.9469503671144526e-16
2.9055020694274966e-16
2.4769604240493386e-16
1.6598991244395915e-16
6.648083240958855e-17
8.056421600273784e-18
1.110846625043844e-16
5.907592160858625e-16
1.804150277639996e-15
4.316042910687503e-15
8.988374553923444e-15
1.7094558221174834e-14
3.0450460492011144e-14
5.153473006796882e-14
8.353820243336876e-14
1.3023056652595033e-13
1.9546029382365813e-13
2.8202425281374535e-13
3.896279519635578e-13
5.119576168833511e-13
6.342391395814495e-13
7.369874036736158e-13
8.235213091950115e-13
1.0183161347619375e-12
1.8512204458911145e-12
4.989530700078238e-12
1.4980391044170895e-11
4.3149051166709285e-11
1.158741865145006e-10
2.9134753850490184e-10
6.920604407007967e-10
1.5651762903945608e-09
3.390155648324678e-09
7.062724560795535e-09
1.4195988004138005e-08
2.7591214591817497e-08
5.193831780627973e-08
9.480217844651466e-08
1.6792568101389205e-07
2.8882233929791634e-07
4.825317628104093e-07
7.832697157622995e-07
1.2355372712115017e-06
1.894099551395774e-06
2.8221662682770055e-06
4.087179318777334e-06
5.753901018844292e-06
7.875016207006144e-06
1.0480144138332696e-05
1.3564833188433507e-05
1.7081540776978073e-05
2.093454886681313e-05
2.4980129400742723e-05
2.9032197793070394e-05
3.28725980939487e-05
3.6264632175811764e-05
3.896893703021063e-05
4.076231134998194e-05
4.146185708800703e-05
4.095746437518642e-05
3.925377027049345e-05
3.651760001523237e-05
3.311952791198381e-05
2.9651440392381184e-05
2.6899854435474794e-05
2.5760660460841552e-05
2.7095682110855616e-05
3.1551738368214515e-05
3.9381890983860504e-05
5.0318125746119736e-05
6.3538989509665e-05
7.775420964538097e-05
9.139695578093038e-05
0.00010288354101786389
0.00011088075971369478
0.00011451944051481545
0.00011350918111264216
0.00010813725800768768
9.91645598242102e-05
8.765385813189491e-05
7.477541496290008e-05
6.163146971978414e-05
4.912828935947473e-05
3.790784463260717e-05
2.8336040527072574e-05
2.0534139151630787e-05
1.4435620800286464e-05
9.851427141823149e-06
6.530503598953289e-06
4.207815486981995e-06
2.6369627594017948e-06
1.6082195023226308e-06
9.54971127385452e-07
5.522747237299484e-07
3.110309757618242e-07
1.7048477302037975e-07
9.084523631589457e-08
4.698295934600253e-08
2.3542110965195594e-08
1.1419123311511241e-08
5.371419937083014e-09
2.468921829747938e-09
1.1281518392117924e-09
5.271215611064794e-10
2.5963337691300737e-10
1.3646017205731592e-10
7.506617770382489e-11
4.155227659623902e-11
2.2261489961082697e-11
1.1207064415877075e-11
5.1868759101572244e-12
2.165543174585394e-12
8.003062834471691e-13
2.588578486387724e-13
7.760084567625832e-14
2.9756337644249847e-14
2.0458170086788498e-14
1.7675491165593754e-14
1.4168596605003339e-14
1.004669123457983e-14
6.396436030676384e-15
3.730964802739157e-15
2.028105365826462e-15
1.0421400347435261e-15
5.125867498452084e-16
2.442455671977665e-16
1.1422279233060166e-16
5.3203706710422493e-17
2.496371598538055e-17
1.1727187245695006e-17
5.370419149403121e-18
2.440347696275719e-18
1.351576057221117e-18
1.0264124268264338e-18
8.27215235337271e-19
1.6087898667099218e-19
1.6180724537237695e-19
8.191228027354679e-19
1.7426211739535144e-18
3.127889937913624e-18
6.9976299382825e-18
1.8084046451795397e-17
4.584155657290143e-17
1.1190028157723565e-16
2.7019496168313113e-16
6.536473252293556e-16
1.5804939307084526e-15
3.7996722491196794e-15
9.055106872574836e-15
2.1363818010068103e-14
4.986786625637515e-14
1.1511372639261203e-13
2.6267082355736465e-13
5.921220231515736e-13
1.3174658266064888e-12
2.8900993869571587e-12
6.243304614052071e-12
1.3266378202177406e-11
2.7700522420315478e-11
5.6785714816262674e-11
1.142003529636006e-10
2.2514443594637454e-10
4.348272354486232e-10
8.220891298380274e-10
1.5202675089435671e-09
2.747373952434426e-09
4.846579843218019e-09
8.335042719995371e-09
1.3953392199856508e-08
2.2699682716557133e-08
3.582250041210996e-08
5.47443227211516e-08
8.089891153515409e-08
1.1550805216603464e-07
1.593993398361724e-07
2.1306402059088002e-07
2.7722673279988583e-07
3.5417454188217757e-07
4.4990395442491203e-07
5.767931434832945e-07
7.561261249332648e-07
1.0196614813652778e-06
1.4098684793391176e-06
1.9795980653224766e-06
2.7935613509905546e-06
3.935296011493724e-06
5.523234957350479e-06
7.737145391571533e-06
1.0851457084514805e-05
1.526592016634986e-05
2.1518809751509477e-05
3.0266155218874085e-05
4.221425038996762e-05
5.8002454313270467e-05
7.804739352006757e-05
0.00010237461391564172
0.0001304749794442026
0.00016122643122885313
0.0001929145050628819
0.000223367365537252
0.0002501962927750819
0.00027110645527454643
0.0002842225637347872
0.00028836591320140106
0.0002832266630885679
0.000269396853084753
0.00024826010671425704
0.00022176495392380702
0.00019213181963300134
0.00016155321580315458
0.00013194115869048372
0.0001047584289371885
8.094716511659349e-05
6.0946306834868164e-05
4.477391995514545e-05
3.2143892982661015e-05
2.2588319904447257e-05
1.5564379666366876e-05
1.053421363864203e-05
7.0151848000102475e-06
4.6041638411127785e-06
2.9826300461495915e-06
1.9098874576917335e-06
1.2105434627185222e-06
7.605577406814791e-07
4.743637498180232e-07
2.9417062635559024e-07
1.8166448804503272e-07
1.1186857841205535e-07
6.875301686855388e-08
4.2176735969103146e-08
2.580427139196338e-08
1.5716389284270234e-08
9.503260279367476e-09
5.68552266999957e-09
3.3525088797245977e-09
1.940329583734264e-09
1.0974878744980836e-09
6.038580532187674e-10
3.2156309323640524e-10
1.6475140567760253e-10
8.063384719050153e-11
3.736715062135183e-11
1.6226139341412428e-11
6.5436278004972006e-12
2.4727788951303684e-12
9.562689140619532e-13
4.874651644198424e-13
3.8063428219752505e-13
3.5864124886989876e-13
3.314531250409541e-13
2.844016318691063e-13
2.2640681668393684e-13
1.6894628301023363e-13
1.195137995669262e-13
8.107592882766829e-14
5.344057009714539e-14
3.479880110034978e-14
2.2858116628535893e-14
1.5494156093709517e-14
1.1029639882953468e-14
8.281301141255637e-15
6.4903410558539075e-15
5.213206901839237e-15
4.215391935506284e-15
3.386817553937069e-15
2.6828390784706703e-15
2.087671732990106e-15
1.5944733992966962e-15
1.1963334051250834e-15
8.835505641688062e-16
6.439801927315299e-16
4.644652106479636e-16
3.3229096455016543e-16
2.362141761348428e-16
1.6697296053994387e-16
1.1736137288595335e-16
8.201468522256238e-17
5.705098325053765e-17
3.968468213106408e-17
2.788842588998745e-17
2.014200802917599e-17
1.5275207799190224e-17
1.2388160780866724e-17
1.081980639567558e-17
1.0133197960616066e-17
1.0095444379117379e-17
1.0646381147125015e-17
1.1867430322127033e-17
1.3972681870257485e-17
1.7341283730654673e-17
2.259102166019927e-17
3.0660845566559444e-17
4.28349844514824e-17
6.061824819910491e-17
8.537801256582812e-17
1.1771710596023174e-16
1.5663872150800068e-16
1.9870145876987277e-16
2.3751588623299355e-16
2.64067531624321e-16
2.684280188037397e-16
2.4341844982063295e-16
1.9074362585106267e-16
1.301138963164803e-16
1.1207135462589698e-16
2.3582684075126873e-16
6.745206935189962e-16
1.7118544634672523e-15
3.795485827878476e-15
7.6127433644664e-15
1.419098891269539e-14
2.5015075826696246e-14
4.213322425385253e-14
6.818420957278759e-14
1.0621598902799661e-13
1.5907383255198288e-13
2.2802417953615423e-13
3.102116724571261e-13
3.9474302544092727e-13
4.58290529860863e-13
4.64736376430667e-13
3.8333481375863244e-13
2.644163530790406e-13
4.677097780327529e-13
2.2586567451183643e-12
9.232751047697801e-12
3.050154393944367e-11
8.744835605633224e-11
2.2740127362597543e-10
5.501505353436798e-10
1.2573319992445565e-09
2.7408081615951006e-09
5.7346362253564156e-09
1.1565818269876781e-08
2.2550472914937764e-08
4.259119756844711e-08
7.803250534909067e-08
1.38815822174313e-07
2.399331511438051e-07
4.030993457679129e-07
6.584426828644061e-07
1.0458599682292044e-06
1.6155224395731845e-06
2.426900872065644e-06
3.545668114279044e-06
5.03800060510572e-06
6.962175158771259e-06
9.357921124724485e-06
1.2234636893232182e-05
1.5560136308831142e-05
1.9251855992551234e-05
2.3172298263460687e-05
2.7129938851296098e-05
3.088613214338085e-05
3.416807527510585e-05
3.6687962437541016e-05
3.816906175894515e-05
3.8380047044095875e-05
3.7178520026698795e-05
3.456222638658808e-05
3.0721623983690983e-05
2.6081173347720686e-05
2.131150609040952e-05
1.7293909925190427e-05
1.5025193616543001e-05
1.5465433422621512e-05
1.935028059564381e-05
2.7007132691002843e-05
3.8223119138906155e-05
5.2207167056917185e-05
6.766794223741568e-05
8.299960775605175e-05
9.653770750641482e-05
0.00010682813666720015
0.00011284956008654667
0.00011414408792842341
0.00011083684492628567
0.00010355327392756112
9.3264973727944e-05
8.110536615582075e-05
6.819487248495667e-05
5.5504691125637645e-05
4.377365578303915e-05
3.3478718401578155e-05
2.484946079277498e-05
1.791184889584546e-05
1.2545766307270512e-05
8.54335943115413e-06
5.6593178124549295e-06
3.648539593355977e-06
2.2902696116439266e-06
1.4002941650905337e-06
8.340730466799882e-07
4.839893714485812e-07
2.7352763393071634e-07
1.5048566850328308e-07
8.055647766644406e-08
4.195393239584596e-08
2.128022336840468e-08
1.0548750027681191e-08
5.147468153649148e-09
2.502468211432347e-09
1.2309221398839666e-09
6.208686559132127e-10
3.2215388616814767e-10
1.699854907169723e-10
8.915826124605913e-11
4.5267446016367037e-11
2.1683170681090594e-11
9.553810563515961e-12
3.758212552998723e-12
1.261721681768085e-12
3.3204757891452395e-13
5.7244918912628e-14
9.164208808481515e-15
1.5882795774631703e-14
2.351490811344499e-14
2.3124761235016063e-14
1.8003194335609404e-14
1.2050486984581886e-14
7.23770977984026e-15
4.002528970034565e-15
2.075348072302151e-15
1.0242736129620212e-15
4.882814795165312e-16
2.2839716618318e-16
1.0656506541449303e-16
5.0269051548125814e-17
2.4114204078191217e-17
1.1789927880996572e-17
5.991220716644609e-18
3.2845149944147667e-18
1.851044882048231e-18
1.9012219786324567e-18
8.940647984074478e-19
6.884068231984767e-19
7.991864096150375e-19
7.026321230402375e-19
5.864286694741589e-19
1.5935970761393145e-18
5.34745784079075e-18
1.418905697974584e-17
3.433039877111366e-17
8.400469144455043e-17
2.1075479774292993e-16
5.310362935581612e-16
1.3268207617605456e-15
3.278583937686214e-15
8.012066911230803e-15
1.9362549642548602e-14
4.627506885381874e-14
1.0937813100627344e-13
2.5560869946673555e-13
5.900297726211718e-13
1.3434594643900478e-12
3.0128964406819075e-12
6.646179397044072e-12
1.4404543626085919e-11
3.064441901641652e-11
6.393728656739894e-11
1.307222755465067e-10
2.616835488119319e-10
5.124567905877021e-10
9.808125880384278e-10
1.8328035963840495e-09
3.3400234320323244e-09
5.928363273622242e-09
1.0234612421265645e-08
1.716053273051344e-08
2.7905822967945158e-08
4.3955901916271695e-08
6.700576862483986e-08
9.882755246287213e-08
1.4114270270193804e-07
1.9563089767251894e-07
2.642621645650792e-07
3.5011853200464665e-07
4.5872238046487495e-07
5.996128737953322e-07
7.876255174630674e-07
1.0432745203274633e-06
1.3920958762626298e-06
1.8639166054882726e-06
2.4945432845026585e-06
3.3336153945057764e-06
4.4623404537086935e-06
6.022641914083541e-06
8.254725723227113e-06
1.1534118055685892e-05
1.6393803763272573e-05
2.351464310835151e-05
3.366978417570773e-05
4.7617047977651855e-05
6.594618267711971e-05
8.890267315771995e-05
0.0001162225142657482
0.00014701887001797477
0.0001797586291006534
0.00021235333482513567
0.00024236645140022941
0.00026731205491956127
0.0002849956272266944
0.0002938329038862414
0.0002930829392950213
0.0002829479064654124
0.0002645209285794773
0.0002395967023200152
0.0002103885283368159
0.00017921190183691293
0.00014819543721107315
0.00011906605064138116
9.303255076757566e-05
7.076744443026724e-05
5.2467402811305285e-05
3.796229412213926e-05
2.6841483726604646e-05
1.8572041105455805e-05
1.2593048264864222e-05
8.379941925761644e-06
5.4803787271559994e-06
3.5275219908124164e-06
2.2381165533374304e-06
1.4021185238118587e-06
8.690069903649014e-07
5.340562878674025e-07
3.2628688194213236e-07
1.9872534923717385e-07
1.2096762473703684e-07
7.373901586859135e-08
4.505117122997047e-08
2.7569793052596853e-08
1.686403641633537e-08
1.0275940748707812e-08
6.2113303736590046e-09
3.7073393731912103e-09
2.175007249497744e-09
1.2487090562586061e-09
6.986130166807347e-10
3.7933772576783217e-10
1.991174102674282e-10
1.0065802345141085e-10
4.8859238176295355e-11
2.2766501583455198e-11
1.0263586461925569e-11
4.60474084746631e-12
2.1971822350906222e-12
1.2258689888702678e-12
8.319241768923347e-13
6.42602338070124e-13
5.154360892030437e-13
4.0693383967332033e-13
3.100140302109986e-13
2.27136374270454e-13
1.6061961215820483e-13
1.1039898416219683e-13
7.446432192509327e-14
4.988553132492668e-14
3.365605642891791e-14
2.318047979008124e-14
1.645953855306196e-14
1.208252988488174e-14
9.125482912593363e-15
7.022364818445068e-15
5.446687831297051e-15
4.219031947459242e-15
3.2427385616144e-15
2.4635129863144335e-15
1.8465618353330096e-15
1.3651882422775634e-15
9.960752375135582e-16
7.179771286779206e-16
5.118118520524557e-16
3.6107680974619547e-16
2.5211191743551325e-16
1.740781578845651e-16
1.1868843011442045e-16
7.97882470134575e-17
5.288683332544457e-17
3.4716779516520236e-17
2.2870888787387138e-17
1.553681315561796e-17
1.132681542874741e-17
9.182999793078982e-18
8.329096519326216e-18
8.239781213786796e-18
8.607608708107126e-18
9.303241654032503e-18
1.0340977906027472e-17
1.1871119163300839e-17
1.4216937121362354e-17
1.795440052859291e-17
2.4001247695488322e-17
3.364896971078165e-17
4.8452223807665754e-17
6.99013995225628e-17
9.88571509173018e-17
1.348218751657937e-16
1.7524873894291755e-16
2.1521491083084815e-16
2.4787341737502984e-16
2.661126761808116e-16
2.657842965578669e-16
2.5074690906076347e-16
2.399217451803335e-16
2.767343515556492e-16
4.41924416191146e-16
8.718833290387256e-16
1.7863674802828188e-15
3.5311732529154922e-15
6.642034598626314e-15
1.1933571413346903e-14
2.0608307976684056e-14
3.436083200030904e-14
5.541470886538431e-14
8.636748118160431e-14
1.2962714539730423e-13
1.861116333481398e-13
2.5281042714044985e-13
3.189739958950142e-13
3.616539263640259e-13
3.4442864194114245e-13
2.3152952007185284e-13
4.9889583153651394e-14
7.735006566440637e-14
1.3323246277023445e-12
6.736252543341218e-12
2.3698443200413402e-11
6.957171017780748e-11
1.8266295416876734e-10
4.435706135807972e-10
1.0149766595626224e-09
2.213117302949757e-09
4.631388783984082e-09
9.345951782613143e-09
1.8243999498571068e-08
3.4525308390177983e-08
6.343239677066363e-08
1.1325706379710445e-07
1.9664194486854894e-07
3.321350455104724e-07
5.458560240360641e-07
8.729967800150859e-07
1.3587219624811084e-06
2.0578930408112598e-06
3.032966892280738e-06
4.3494794820014335e-06
6.068768594968808e-06
8.238029622625948e-06
1.0878386026735466e-05
1.3972275285020642e-05
1.7451945456782383e-05
2.119108927994131e-05
2.500156470806798e-05
2.8636850100330456e-05
3.1803550001081944e-05
3.4182073296062944e-05
3.5457513419869895e-05
3.5361389203960024e-05
3.372357370578989e-05
3.053078609764832e-05
2.5983352927290276e-05
2.0536556360031522e-05
1.490900463858403e-05
1.0040979320702137e-05
6.992934580300952e-06
6.788423102845188e-06
1.0223758165717353e-05
1.768293232737144e-05
2.9003982417747925e-05
4.343729173907185e-05
5.971688140555884e-05
7.623754371703908e-05
9.130256993503824e-05
0.0001033881837207222
0.00011136770101151753
0.00011465133121986224
0.00011322128277028144
0.0001075681486098804
9.855541212207489e-05
8.72494242666075e-05
7.475166243733439e-05
6.20612675985677e-05
4.9983184964467556e-05
3.908487075153188e-05
2.969520501170897e-05
2.1933992423478908e-05
1.575893920728675e-05
1.1018260490590844e-05
7.499921101631845e-06
4.971911202759212e-06
3.211147437338214e-06
2.021104944576616e-06
1.2399253533611117e-06
7.415247666823731e-07
4.3230643706429486e-07
2.457024942096084e-07
1.3617000455657174e-07
7.364503526715807e-08
3.893912866689633e-08
2.019871680971579e-08
1.0337402531438526e-08
5.260074055143607e-09
2.6832777463624666e-09
1.3802650751861631e-09
7.157792935768601e-10
3.7116070576143906e-10
1.8957914116109887e-10
9.358164477084267e-11
4.3709228408201894e-11
1.885992505501988e-11
7.286842578462271e-12
2.39747916204084e-12
6.058098495597142e-13
8.785829302897972e-14
5.214035230407375e-15
2.5052072854276385e-14
4.38593163699218e-14
4.506513924426496e-14
3.5777505782168475e-14
2.4201546540941742e-14
1.4606616688216122e-14
8.07530525987113e-15
4.163659466778484e-15
2.0325614032424646e-15
9.542256162895917e-16
4.388892357321932e-16
2.021544280115337e-16
9.533949654028996e-17
4.6788831591854154e-17
2.404356564985811e-17
1.2915227492071523e-17
7.147758570357109e-18
3.8773244581981726e-18
4.87572877126623e-18
2.790587211170872e-18
1.7833954113574973e-18
1.1229733810306675e-18
4.2611792096270545e-19
2.4629859679976645e-21
4.60864434870686e-19
1.9872475281874812e-18
4.556718385841295e-18
9.807492253573625e-18
2.4316668853729714e-17
6.506015520066198e-17
1.7285749025688464e-16
4.493694937317558e-16
1.1509832627910905e-15
2.9138914151980576e-15
7.290494926022509e-15
1.8036154743007188e-14
4.4171729578711535e-14
1.0711772198547838e-13
2.568970740049612e-13
6.080628890515945e-13
1.4175901332685645e-12
3.2499223274184516e-12
7.318155240668115e-12
1.6170496353778462e-11
3.50312866296515e-11
7.433821898166228e-11
1.5437808174322544e-10
3.1343617387904e-10
6.215136195296359e-10
1.2022902801810752e-09
2.2662707527181007e-09
4.157321505231875e-09
7.4122432322758234e-09
1.2827928494807153e-08
2.1523338774193572e-08
3.497656739001462e-08
5.501642577212594e-08
8.376142079134799e-08
1.2353253052425303e-07
1.7681475748631156e-07
2.463812003845664e-07
3.3567815065793375e-07
4.4945796072599836e-07
5.944416661707108e-07
7.795945413758373e-07
1.0156115439173095e-06
1.3136789107319641e-06
1.6846177038699809e-06
2.1409166543177773e-06
2.7052996070439675e-06
3.4294386834887363e-06
4.42441543824842e-06
5.900355555478138e-06
8.207088673091737e-06
1.1862414342754144e-05
1.755173717491455e-05
2.6084314774363536e-05
3.829797375164248e-05
5.4915308772944786e-05
7.636808258301657e-05
0.0001026196866262712
0.0001330244485829559
0.00016626383558953373
0.00020039091812383902
0.0002329957654096123
0.00026147866123328177
0.0002833910219041753
0.0002967832225829872
0.00030049112326750694
0.0002943025966818715
0.00027897039265761776
0.0002560717361568433
0.00022774856644146844
0.0001963859016192802
0.00016429351236087097
0.00013344724951042423
0.00010532538438629638
8.084959282549622e-05
6.041731554411549e-05
4.399744958681775e-05
3.1256487327174986e-05
2.1685914352902274e-05
1.471054053742465e-05
9.767715074129255e-06
6.356153615854312e-06
4.058880409587573e-06
2.5473925809970566e-06
1.5742923253302098e-06
9.60332526748223e-07
5.800102822507467e-07
3.4814261606892726e-07
2.0856328003299368e-07
1.2524030240713437e-07
7.565226809163016e-08
4.6059106188704716e-08
2.8254582323299767e-08
1.7417517995906157e-08
1.0741152375474809e-08
6.590125985703817e-09
3.9999717004119545e-09
2.3892874428464665e-09
1.3981940639789164e-09
7.986162092541595e-10
4.4392434847487163e-10
2.3965392439308865e-10
1.2554241756686367e-10
6.38941362116135e-11
3.175997175439574e-11
1.5618059100380245e-11
7.792270468077147e-12
4.1018139930261115e-12
2.3720647259640105e-12
1.528950276169053e-12
1.0724869462110185e-12
7.853536434611167e-13
5.800703887888174e-13
4.237092544921796e-13
3.0356116964680165e-13
2.1306419500943072e-13
1.4696493079344818e-13
1.0021712410119354e-13
6.809803001642943e-14
4.652103767179922e-14
3.221824526113955e-14
2.2753165156578233e-14
1.641712347011237e-14
1.207426181796484e-14
9.003083528129391e-15
6.761051956888417e-15
5.081800972228382e-15
3.804025627230484e-15
2.826140832399935e-15
2.0795260785012183e-15
1.5139187365693516e-15
1.0900451154764763e-15
7.761566523714413e-16
5.464312984827869e-16
3.8011974678156194e-16
2.609014196319621e-16
1.762492393595832e-16
1.1676897959459063e-16
7.55456189804131e-17
4.754278449202964e-17
2.9091685714335576e-17
1.748905461721068e-17
1.0706699872752857e-17
7.200843078059233e-18
5.79857001264315e-18
5.633039167753699e-18
6.100338112594545e-18
6.81970156424005e-18
7.593158603489856e-18
8.375418767778474e-18
9.272990755077729e-18
1.0587113648351082e-17
1.2896048088131692e-17
1.7142832218037214e-17
2.4665437190062603e-17
3.7092310833215114e-17
5.604236046501714e-17
8.26233511591763e-17
1.1681382534719935e-16
1.5692342140547484e-16
1.9942348126716735e-16
2.394863164131472e-16
2.7253789026324577e-16
2.970137290952903e-16
3.183594806423986e-16
3.542461552574584e-16
4.4114420091894366e-16
6.430127444881789e-16
1.064053366412884e-15
1.869223121667342e-15
3.318125960994889e-15
5.8190628015476944e-15
1.0008637780486606e-14
1.6855480672458736e-14
2.7770058897304125e-14
4.467053906472552e-14
6.990108005854598e-14
1.0582098155402035e-13
1.5379290969790907e-13
2.1225423854447241e-13
2.7373768320847635e-13
3.215893485612725e-13
3.298424737729482e-13
2.7675005293208596e-13
1.9912097212187688e-13
3.51366237864217e-13
1.6101929206990214e-12
6.42018249707912e-12
2.087217332478852e-11
5.905487298003368e-11
1.5179487049623447e-10
3.635616884240678e-10
8.240199724186926e-10
1.784893028112656e-09
3.7188798821302884e-09
7.485544119139206e-09
1.459898813743902e-08
2.7642241429107048e-08
5.0880354076759995e-08
9.112259351629246e-08
1.5886587671824091e-07
2.6970713819784873e-07
4.4593327669087215e-07
7.180805397423255e-07
1.1261085970238203e-06
1.7196823262602738e-06
2.5569391220158275e-06
3.701097980101917e-06
5.214396165759116e-06
7.1491572945805144e-06
9.53629585116646e-06
1.2372186179466615e-05
1.560545843866279e-05
1.91258028736193e-05
2.275717124167886e-05
2.625783359212163e-05
2.932961606963817e-05
3.163834150231499e-05
3.284693259666289e-05
3.2661531218610134e-05
3.088889739974967e-05
2.7499933419221343e-05
2.268959028918971e-05
1.6918703084887144e-05
1.0920468468260568e-05
5.655773528284418e-06
2.2092325370591535e-06
1.631494622202683e-06
4.750315108090511e-06
1.1987755215877903e-05
2.3227620014888426e-05
3.777154376496018e-05
5.440371862089378e-05
7.15577520691132e-05
8.755271421872841e-05
0.00010084777997853657
0.00011026168097648974
0.00011511492154349914
0.00011527464854349616
0.00011110648260846827
0.00010335704901085698
9.300084266962067e-05
8.108483985233282e-05
6.859657806207933e-05
5.637036255771272e-05
4.503556077174139e-05
3.50029190772471e-05
2.6480197697571307e-05
1.950677409703222e-05
1.3997345615025141e-05
9.786597301360183e-06
6.669012896772775e-06
4.430416042941577e-06
2.869997556647397e-06
1.8132830957644884e-06
1.117602011405724e-06
6.721268379516903e-07
3.945618544028282e-07
2.2623232672575427e-07
1.2684203590848623e-07
6.967445154567509e-08
3.760705084781886e-08
2.0026749488266518e-08
1.0572116657201403e-08
5.556791370894626e-09
2.914708947915217e-09
1.5234186445374157e-09
7.884896029826925e-10
3.998869698292199e-10
1.9600272252119107e-10
9.136783930652014e-11
3.976452833453943e-11
1.579764433968153e-11
5.564489133310331e-12
1.6800736730746366e-12
4.4271727496053807e-13
1.5248097565502504e-13
1.2155518972838144e-13
1.2241219156618496e-13
1.0673789219783156e-13
7.946283816496548e-14
5.2091460316677537e-14
3.0821685087428635e-14
1.6745343008048152e-14
8.461849131963056e-15
4.0241360932382455e-15
1.8265674090957647e-15
8.077453847537681e-16
3.587872283437246e-16
1.6631670631878575e-16
8.304458765189401e-17
4.4925802033630525e-17
2.5751200233086792e-17
1.508554389339232e-17
8.707393987405868e-18
1.1934588782564892e-17
7.165735646742509e-18
4.241181508810099e-18
2.291255368842824e-18
9.760193883863146e-19
4.339804805660435e-19
6.729522481967747e-19
1.1716912444144537e-18
1.4337456776210994e-18
2.1911975489851326e-18
6.312844534787955e-18
1.9666355739984135e-17
5.527093966690572e-17
1.4793302509915436e-16
3.9181647595776896e-16
1.0286027094073173e-15
2.6626875960962255e-15
6.8084429293107155e-15
1.7271387134227613e-14
4.3522592948522276e-14
1.0868506090397913e-13
2.67981225669382e-13
6.504844140652299e-13
1.5516439228788895e-12
3.6334825803447628e-12
8.34624260974377e-12
1.879055933479379e-11
4.1424953986175874e-11
8.933243380161227e-11
1.882376069043977e-10
3.871336109699155e-10
7.761789589103945e-10
1.5152323625016381e-09
2.8765132118740265e-09
5.303608105925796e-09
9.48548001142245e-09
1.6437861078517936e-08
2.7576555200884663e-08
4.476147150619347e-08
7.029282147526037e-08
1.0685741455848958e-07
1.5745178444209734e-07
2.25333766440474e-07
3.14043584568847e-07
4.274584517087899e-07
5.697063899605896e-07
7.446482742517421e-07
9.547133986610066e-07
1.1993430708574333e-06
1.4742462102459334e-06
1.7739077575103364e-06
2.1007616468260844e-06
2.484351997147099e-06
3.011966518550083e-06
3.868474875024523e-06
5.37810465369382e-06
8.036073013335618e-06
1.2515151011731494e-05
1.9632909122808035e-05
3.0270352829836572e-05
4.524167472425822e-05
6.512669205841172e-05
9.009009180725779e-05
0.00011972202141142914
0.00015293955408350395
0.0001879850606830337
0.00022254383007797512
0.0002539803374827607
0.0002796647125748188
0.00029733545957632694
0.0003054294745960696
0.00030331195184787527
0.0002913581503638562
0.00027087163006198994
0.00024386027115766467
0.00021272154620458387
0.0001799038698838694
0.00014760831166667473
0.00011757723715317082
9.099051020890359e-05
6.846404060446024e-05
5.0126409417070254e-05
3.5740347023694116e-05
2.4836620558028047e-05
1.6835450729271395e-05
1.1140995968196382e-05
7.204289948456457e-06
4.557207912716517e-06
2.8239381217490773e-06
1.7174975053321403e-06
1.0280230134262495e-06
6.078915100377457e-07
3.5691956187849275e-07
2.093887984480681e-07
1.2357650325119426e-07
7.381906901976569e-08
4.479973544643662e-08
2.7624264827983978e-08
1.7241717730866967e-08
1.0821868814608235e-08
6.7783750434376776e-09
4.205969014112787e-09
2.5695391377761846e-09
1.5383917846646894e-09
8.997201215409132e-10
5.13069304334963e-10
2.85152453201632e-10
1.5464909273222498e-10
8.214123009625976e-11
4.303892147984186e-11
2.2524361992822422e-11
1.199606870712371e-11
6.652453004005684e-12
3.91867259592963e-12
2.468957583252134e-12
1.6473551012613036e-12
1.140773090701634e-12
8.033472462661303e-13
5.668392716986493e-13
3.9739354268252323e-13
2.7592479073764604e-13
1.8984100834795677e-13
1.2982453214527535e-13
8.86637921403719e-14
6.080292225010625e-14
4.2082184189654014e-14
2.95007954072105e-14
2.0975157747126664e-14