# vtk DataFile Version 4.1 
COMMENT
ASCII
DATASET STRUCTURED_POINTS 
DIMENSIONS 300 300 1 
ORIGIN 0 0 0
SPACING 0.020943951023931952 0.020943951023931952 0 
POINT_DATA 90000
SCALARS U double 1
LOOKUP_TABLE default
6.962438157784658e-19
2.2531096510241734e-19
7.049253931269661e-19
2.0838027467506098e-18
3.823266581615228e-18
5.7383415665388114e-18
8.075366701003525e-18
1.082356367429887e-17
1.3845788503674278e-17
2.0778665450571938e-17
5.4491621900434924e-17
2.077965334102684e-16
7.937805661272309e-16
2.7553452343443585e-15
8.705932995926269e-15
2.542195285116915e-14
6.950088415861477e-14
1.7958031320396368e-13
4.4150678423972393e-13
1.0379118994699073e-12
2.341931734019997e-12
5.088215601114743e-12
1.0676658314116891e-11
2.1702949995254297e-11
4.2878422133687895e-11
8.261789574457951e-11
1.5574866286725298e-10
2.879919301964643e-10
5.229383339231157e-10
9.318147344583578e-10
1.624777379977384e-09
2.758964733985543e-09
4.5326514089453145e-09
7.1475655354704305e-09
1.0716888204552165e-08
1.5103558373114882e-08
1.9706249319287552e-08
2.3284529264468483e-08
2.4038652508134717e-08
2.0318607327564252e-08
1.247597141593483e-08
6.384216565267855e-09
1.8894398207180204e-08
8.483438232296384e-08
2.640775879577464e-07
6.458891604985238e-07
1.3466650614924893e-06
2.4970010227937915e-06
4.215473938208156e-06
6.569974854001041e-06
9.532582117113206e-06
1.293954370488656e-05
1.6471842052502543e-05
1.9671642779268937e-05
2.200394291637116e-05
2.2960938037203035e-05
2.219149147474627e-05
1.9624401325708784e-05
1.554770959680966e-05
1.06115888695779e-05
5.740189461192571e-06
1.964024837032207e-06
2.1053470523303212e-07
1.1066099661219163e-06
4.846122367336967e-06
1.1157084858677045e-05
1.937318576501694e-05
2.858393446179165e-05
3.7817446224257164e-05
4.620638799842473e-05
5.310029261144068e-05
5.810969707039224e-05
6.10900304957926e-05
6.208798652236033e-05
6.12767722262297e-05
5.890059256609743e-05
5.523778110380563e-05
5.0581534501041215e-05
4.5230979866911405e-05
3.9484317038680285e-05
3.362870014900931e-05
2.7925898088093948e-05
2.2596340156503993e-05
1.7805677345578097e-05
1.3657420807133371e-05
1.019332745053998e-05
7.401019264231885e-06
5.226672487329196e-06
3.5898864603297268e-06
2.398008943840312e-06
1.5579572205228745e-06
9.84556538465761e-07
6.053085054538251e-07
3.621234093422756e-07
2.108565940243033e-07
1.195285262343856e-07
6.597383899538843e-08
3.5452076749635127e-08
1.8535925104341235e-08
9.415023012855135e-09
4.631426711625463e-09
2.1939714072755817e-09
9.910026703285995e-10
4.19574515776347e-10
1.6146367279248052e-10
5.315256594273626e-11
1.2972666216541225e-11
1.501806266789918e-12
5.826957105182523e-13
2.4474896696742008e-12
4.196076552111208e-12
5.059849161389617e-12
5.093186172971266e-12
4.583896711220056e-12
3.81548281350895e-12
2.9929347106891087e-12
2.237603784749307e-12
1.6058390213474438e-12
1.1113806503523606e-12
7.440133299983011e-13
4.827169471865071e-13
3.038550989840569e-13
1.856252015522909e-13
1.0999646110045567e-13
6.31288735950481e-14
3.4990440862730295e-14
1.8644174853951907e-14
9.483727113611586e-15
4.558709837556524e-15
2.0415424375715584e-15
8.36844129627523e-16
3.108494526343651e-16
1.1179330602831173e-16
5.457415889177166e-17
4.873366993745732e-17
5.4748586886666714e-17
5.846135992879419e-17
5.69141970431295e-17
5.1139907008333623e-17
4.2969357291558226e-17
3.3942286472660155e-17
2.514129548654281e-17
1.7298455266484227e-17
1.0888608852541979e-17
6.145902068476331e-18
3.046215376406115e-18
1.320675273940927e-18
5.394731339509868e-19
2.624076275553413e-19
2.1650921316853416e-19
4.454936123436414e-19
1.384414984803299e-18
3.841076573768133e-18
8.903033926252163e-18
1.7822816530435794e-17
3.195370593097083e-17
5.2808717370881174e-17
8.229747260491627e-17
1.231655025670569e-16
1.7962556388726084e-16
2.581354726539393e-16
3.682416886446005e-16
5.233697054372421e-16
7.41403504814389e-16
1.0448779738126627e-15
1.4606693172241551e-15
2.019328146034584e-15
2.7548547162399916e-15
3.7070389502157674e-15
4.930785386092739e-15
6.52033475659093e-15
8.660886986178394e-15
1.1725079068100907e-14
1.6435271901673278e-14
2.4111487929115923e-14
3.701471140903986e-14
5.877151377944387e-14
9.482636810728643e-14
1.5281731258076655e-13
2.4272722776413063e-13
3.766669868498231e-13
5.68267246364043e-13
8.319949130762406e-13
1.183402706132597e-12
1.6425288382646766e-12
2.2445881346491636e-12
3.065021432780398e-12
4.2704137437169694e-12
6.213812037735304e-12
9.60470564553856e-12
1.5804346699974566e-11
2.7332878025936663e-11
4.873621135085057e-11
8.80628287708452e-11
1.5936647445527515e-10
2.8692015871255657e-10
5.122836976982529e-10
9.061985807166349e-10
1.588896796304329e-09
2.765614089102559e-09
4.790337721128267e-09
8.282353940195554e-09
1.433996690896986e-08
2.492677710702638e-08
4.3549168047333e-08
7.639500373178025e-08
1.341492365773021e-07
2.3471475110488133e-07
4.070045950223261e-07
6.957859582655343e-07
1.1672102437819366e-06
1.9141650304694073e-06
3.0600224964826226e-06
4.758932543831387e-06
7.1908090518887635e-06
1.0549890520027328e-05
1.5027390153461457e-05
2.0791123852206724e-05
2.7967479459009633e-05
3.663256858964226e-05
4.681860633197337e-05
5.853759298428526e-05
7.181737787689664e-05
8.67368628094884e-05
0.00010344062117434411
0.0001221123506823909
0.00014289418100818516
0.00016575509220033462
0.0001903329999791749
0.00021579449172634538
0.00024076549930339988
0.0002633790302564494
0.00028146115545597166
0.00029283909010348607
0.00029571633008905045
0.00028903242880110166
0.0002727194496524304
0.0002477869595945065
0.00021620775234408704
0.00018062550131888851
0.00014394862448339997
0.00010891940995609132
7.774776637628803e-05
5.187651934611422e-05
3.190827769605332e-05
1.768415715567076e-05
8.473021129234479e-06
3.21342873645802e-06
7.508151534820004e-07
2.624678404661898e-08
1.9401084863238975e-07
6.663623817142653e-07
1.099592810826537e-06
1.343608154879078e-06
1.377639691923598e-06
1.2497725707432705e-06
1.0306532082401832e-06
7.846771479877244e-07
5.568314487685735e-07
3.707145212112052e-07
2.3275994987449704e-07
1.3858355411000866e-07
7.883697366829268e-08
4.3365884016474495e-08
2.350108295471885e-08
1.2873661631877929e-08
7.321388598647685e-09
4.388548443681567e-09
2.7564743519863703e-09
1.7748756496639356e-09
1.14282145658565e-09
7.221325574225699e-10
4.428554894809187e-10
2.6221043740941633e-10
1.4965728077658827e-10
8.237179294601583e-11
4.3778609455128655e-11
2.250315257996856e-11
1.120449172718739e-11
5.411083209864724e-12
2.537449109414648e-12
1.1565320591922161e-12
5.128912608188646e-13
2.216190529366172e-13
9.34946081685077e-14
3.862495688600311e-14
1.5694445994153277e-14
6.311226353304999e-15
2.5331828214159716e-15
1.0259184743182625e-15
4.2443090644924394e-16
1.8172571984294546e-16
8.170876552666819e-17
3.90293284569323e-17
1.951180270741833e-17
9.621921325034884e-18
4.490098006200767e-18
2.3369975112031103e-18
1.770598339010868e-18
1.4016932035702776e-18
7.625254122406825e-19
7.747430492371514e-20
4.429140537665167e-19
1.2146896767272002e-18
1.7904967738792863e-18
2.339120203747299e-18
3.5293705802035364e-18
5.912651867427576e-18
1.0265130008613132e-17
2.0052217026240982e-17
4.9339453924109913e-17
1.4771195132437048e-16
4.741110452227948e-16
1.4993531931448936e-15
4.526172819023937e-15
1.294906767063625e-14
3.514469448281168e-14
9.076838087701707e-14
2.2380219823981905e-13
5.28321514739923e-13
1.1971423700507523e-12
2.6102341514295267e-12
5.491245004019571e-12
1.1181971221094533e-11
2.2127141050294238e-11
4.2743771348377014e-11
8.099022209483596e-11
1.5114594109887093e-10
2.784791781378081e-10
5.063622205241683e-10
9.054852539186352e-10
1.582394275027252e-09
2.6800211990771104e-09
4.356521384973344e-09
6.723289722967385e-09
9.725235852068699e-09
1.29679349692752e-08
1.5551950916276213e-08
1.6075646697853257e-08
1.3108664115950612e-08
6.579627013372227e-09
5.772010913158501e-10
7.905360510987428e-09
5.623039619300283e-08
1.9475176185892246e-07
4.991362257735589e-07
1.0713349092602997e-06
2.030446500594406e-06
3.4916692203368922e-06
5.5330676808305955e-06
8.154288926509142e-06
1.1236600861122424e-05
1.4517968484839216e-05
1.7598124116245527e-05
1.9984796488422343e-05
2.1182772025055455e-05
2.0813726727099084e-05
1.8740613559709306e-05
1.5161209761537251e-05
1.0636289624270441e-05
6.031116015673695e-06
2.3722712694472592e-06
6.483116557520484e-07
1.6028420211399648e-06
5.574178669488855e-06
1.2423689142821862e-05
2.1568930464705617e-05
3.210719188541136e-05
4.299097815547271e-05
5.32073197062813e-05
6.191937174446964e-05
6.854700760806157e-05
7.27847304872103e-05
7.45721180172788e-05
7.403949936267967e-05
7.144958116740137e-05
6.714781589241962e-05
6.152524789446647e-05
5.499117355870956e-05
4.795074364211604e-05
4.078394335750741e-05
3.3825296735449596e-05
2.7346200761137294e-05
2.154283417033776e-05
1.6531957879771773e-05
1.2355233641435273e-05
8.990807540163564e-06
6.369549208360381e-06
4.392841962544054e-06
2.9491405471081755e-06
1.9273666818296147e-06
1.2262426581728334e-06
7.595765541583177e-07
4.581417858984077e-07
2.690983116822645e-07
1.539333689966226e-07
8.575025237862203e-08
4.6501961124379105e-08
2.4529127246560384e-08
1.2564931063708e-08
6.232259881366491e-09
2.978738772033035e-09
1.3612345063032675e-09
5.875161427777668e-10
2.3500869366932026e-10
8.47916619067998e-11
2.698008192710905e-11
8.449053927500961e-12
4.75256649840678e-12
5.431935986705551e-12
6.5363136988953655e-12
6.936059443482445e-12
6.583717948235334e-12
5.7467372020497025e-12
4.7058008278177e-12
3.662693452717306e-12
2.7329065738905932e-12
1.965709579245796e-12
1.3678966574031341e-12
9.23058831270506e-13
6.048584267130083e-13
3.851506253264215e-13
2.3834302184574394e-13
1.4326768827557607e-13
8.355094874963363e-14
4.717907302368039e-14
2.572096033483875e-14
1.3487131532479019e-14
6.773086979110276e-15
3.247231456908497e-15
1.4908689805345027e-15
6.711816206977564e-16
3.187768465043488e-16
1.8181734255407644e-16
1.3348594674462843e-16
1.1525110363152722e-16
1.034584092538619e-16
9.067215595957586e-17
7.599184393642152e-17
6.053157657859197e-17
4.562748097242687e-17
3.230727928304665e-17
2.1224487716020936e-17
1.2694333194177615e-17
6.7207993273793135e-18
3.022375793416298e-18
1.094192557050996e-18
3.268671264775938e-19
1.6930458664220932e-19
2.9541181325047976e-19
7.250016020921003e-19
1.8602578171214345e-18
4.4270658793899004e-18
9.346201069726796e-18
1.75914465982832e-17
3.011002472523962e-17
4.787942034853663e-17
7.215366466411746e-17
1.0491609657821429e-16
1.49510913970881e-16
2.1137702007849552e-16
2.98755688704824e-16
4.2318777506791445e-16
5.995616832643044e-16
8.454437771330658e-16
1.1794781955653539e-15
1.6188981622779511e-15
2.1768306054336505e-15
2.861352377259062e-15
3.68045084421696e-15
4.6603644522864035e-15
5.8891830212497626e-15
7.60248962445541e-15
1.0331779435723473e-14
1.5136850413185922e-14
2.3936813402580253e-14
3.9937259527046446e-14
6.812207657264367e-14
1.1574215059636337e-13
1.927061097126784e-13
3.1179468701220826e-13
4.8873745361634e-13
7.424898135172788e-13
1.096629883440291e-12
1.583772448717121e-12
2.256401957723361e-12
3.2097592253283655e-12
4.625802137779055e-12
6.852785800636925e-12
1.0544819720741845e-11
1.6904069664065825e-11
2.8102532995756244e-11
4.8022639507196434e-11
8.356498064006781e-11
1.469561309877189e-10
2.59798004586064e-10
4.6012242186646164e-10
8.14631088375725e-10
1.4399751369935789e-09
2.540052056788719e-09
4.472080054202863e-09
7.86453217476455e-09
1.3827384299028381e-08
2.432215453206921e-08
4.2797185622527426e-08
7.523999845246164e-08
1.3184335583849164e-07
2.2950392943231389e-07
3.953387644429145e-07
6.712736175518731e-07
1.1194928183417268e-06
1.8281366706700343e-06
2.9161445410517906e-06
4.535710166375668e-06
6.87066386863578e-06
1.0129478853033325e-05
1.4532689742450786e-05
2.029625340359541e-05
2.7614354703616502e-05
3.664656191433946e-05
4.751406830655528e-05
6.0307226866166394e-05
7.510164707454768e-05
9.197390835268035e-05
0.00011100280134969314
0.00013224091460462852
0.0001556467707640692
0.0001809800566234633
0.0002076793048409728
0.0002347573176233174
0.0002607579146921994
0.0002838126310453904
0.0003018160284415802
0.0003127070259365237
0.0003148098333742076
0.00030716281369128274
0.00028975644709402923
0.000263616724444005
0.00023070467766185272
0.00019364675618573535
0.00015535147113576825
0.0001185933610963298
8.564911596315208e-05
5.805283803310325e-05
3.650454190939392e-05
2.0928456438892193e-05
1.0645980109370793e-05
4.609670919395416e-06
1.6419987297441662e-06
6.33524304321621e-07
6.741846769408915e-07
1.1119137456572373e-06
1.5494343451867154e-06
1.7996358483410944e-06
1.8220865176276116e-06
1.6595927343822243e-06
1.387003532948116e-06
1.0773259260974734e-06
7.845521957633308e-07
5.392532142606704e-07
3.518985800766756e-07
2.1939940919708825e-07
1.3173040381870667e-07
7.698401567660139e-08
4.440637397287907e-08
2.5695223136081747e-08
1.5136147636153217e-08
9.148729097454407e-09
5.661077012811447e-09
3.5479081251491297e-09
2.2208590940402926e-09
1.3712302904468619e-09
8.276271389612249e-10
4.856546540194513e-10
2.763124036053611e-10
1.5227915298044417e-10
8.12999521801535e-11
4.207526200758623e-11
2.112644375975506e-11
1.0301469104845488e-11
4.8829339924199454e-12
2.2525404565965883e-12
1.0127924151311888e-12
4.447591400931503e-13
1.9132377235974535e-13
8.095617078651087e-14
3.388400447721401e-14
1.4129393394826949e-14
5.921138542961911e-15
2.5178904465318108e-15
1.0971120458977279e-15
4.941641169147193e-16
2.3157635855882747e-16
1.1294518960763172e-16
5.668378117645201e-17
2.8722471761587477e-17
1.471436094891566e-17
7.98031231827788e-18
4.625299913542051e-18
2.4096827532193243e-18
2.5715926011011682e-18
1.2071927984096577e-18
1.117801515209674e-18
1.169067529501038e-18
8.924934712148655e-19
7.304947337991911e-19
1.3429359923433678e-18
3.0881734299970746e-18
6.547167396708721e-18
1.420557686272631e-17
3.4645103459230825e-17
9.508572146258827e-17
2.781437899249138e-16
8.225884019658268e-16
2.383702574795905e-15
6.669165701205112e-15
1.7909361955670486e-14
4.608220248579086e-14
1.1362394986912837e-13
2.686729199052861e-13
6.098965941225709e-13
1.3310158124322852e-12
2.7984145692900686e-12
5.686144034395387e-12
1.1217605001331525e-11
2.1618463919755975e-11
4.099361881831029e-11
7.701633884508813e-11
1.4402379621347162e-10
2.68189087477912e-10
4.950144015677023e-10
8.978630115494995e-10
1.5829849541495368e-09
2.6814237476709266e-09
4.312946539735783e-09
6.506557201158082e-09
9.075474848368241e-09
1.1484693792911295e-08
1.2828511597373675e-08
1.2154556058438278e-08
9.504009049450839e-09
8.118011501747597e-09
1.8178569845738497e-08
6.20843676400485e-08
1.805309438074419e-07
4.376286882618575e-07
9.222185092811335e-07
1.7419195056888253e-06
3.006866119818636e-06
4.8020571133050436e-06
7.150838905358145e-06
9.976716130001102e-06
1.3075100711495658e-05
1.6108881625904885e-05
1.8639881096014483e-05
2.0201203064247148e-05
2.0403701068399766e-05
1.9056047895763604e-05
1.6266868515596115e-05
1.2494326167832971e-05
8.516943060050757e-06
5.318912110110224e-06
3.908559347451663e-06
5.11130822768895e-06
9.389647965967589e-06
1.6737129410118813e-05
2.6672553248026528e-05
3.8331653607786346e-05
5.062713965087807e-05
6.24329310990143e-05
7.274870853576388e-05
8.081417550789719e-05
8.616189754131294e-05
8.86154252297698e-05
8.82501214067684e-05
8.533620666288121e-05
8.0279148246084e-05
7.356556037399363e-05
6.571683715333205e-05
5.72496721026252e-05
4.864237300366365e-05
4.0307162343597894e-05
3.256993658558279e-05
2.5659258003499065e-05
1.970549856600975e-05
1.4749505062158526e-05
1.0758601704810395e-05
7.646753786803864e-06
5.29552542391605e-06
3.5729960208754707e-06
2.348772563965004e-06
1.5043167949599993e-06
9.387318876542813e-07
5.707759357181474e-07
3.381608495302324e-07
1.9521031425690307e-07
1.0978431235809606e-07
6.012812678808643e-08
3.204804259318712e-08
1.6602076842863404e-08
8.342104477689511e-09
4.053352060725724e-09
1.896435121227743e-09
8.499568807517726e-10
3.633191216701135e-10
1.486037055704641e-10
6.010956074113115e-11
2.6834986624336535e-11
1.576228369014703e-11
1.2477648614047173e-11
1.1259203831134267e-11
1.019037536044067e-11
8.861298472058167e-12
7.356294782900441e-12
5.8512579714905395e-12
4.481745945801642e-12
3.319465056786403e-12
2.3845924898337268e-12
1.664737627428537e-12
1.1308090789434785e-12
7.478736520676293e-13
4.816870740402905e-13
3.0210195244802634e-13
1.844213390794722e-13
1.0950189542685348e-13
6.317555633700141e-14
3.5375061639116977e-14
1.9207878307289155e-14
1.0116563208764255e-14
5.187296807211348e-15
2.618729246322249e-15
1.335664889293897e-15
7.204941198067093e-16
4.3366816137277727e-16
2.9799583722561186e-16
2.267882972552664e-16
1.8104033247038325e-16
1.4514518568800916e-16
1.1394699408192223e-16
8.636501251702328e-17
6.256436441941e-17
4.286412662429625e-17
2.7390560407766853e-17
1.599804308838883e-17
8.273217450029703e-18
3.578576961939602e-18
1.1382935834895465e-18
1.6656117172216863e-19
1.8678827138983265e-20
3.2748571164719673e-19
1.0833156856362073e-18
2.627828101065357e-18
5.5583278847776235e-18
1.0572189925886293e-17
1.8310743102936125e-17
2.927873240251257e-17
4.391285155612879e-17
6.284946883886273e-17
8.740086213745373e-17
1.2019664042944094e-16
1.6588747616398799e-16
2.317444749903233e-16
3.279216981048034e-16
4.670897484653398e-16
6.631203255911489e-16
9.285626396807026e-16
1.2709077168288537e-15
1.6882502759774694e-15
2.166151324278049e-15
2.679525492341624e-15
3.206420293962265e-15
3.76461498639132e-15
4.48661869570202e-15
5.752783835765892e-15
8.403895726138027e-15
1.40510212548445e-14
2.548887785168469e-14
4.719864499862327e-14
8.590116172281646e-14
1.5110551068427806e-13
2.556190192640912e-13
4.160880751399862e-13
6.538867580072378e-13
9.971343190938734e-13
1.485377449746105e-12
2.1796004051752167e-12
3.18186349866207e-12
4.6713649513577964e-12
6.967961018220428e-12
1.064219737947322e-11
1.6706819196547586e-11
2.6956053755407404e-11
4.457833730359544e-11
7.527577361429284e-11
1.2931141954019062e-10
2.2522613436562643e-10
3.9651318275318615e-10
7.034847189430119e-10
1.2542378203647116e-09
2.241627728840419e-09
4.008501938379854e-09
7.1627132413874134e-09
1.2778728284074827e-08
2.2746267822689372e-08
4.035978911735782e-08
7.128438985531164e-08
1.250768803979062e-07
2.1746959238097242e-07
3.7361270162252906e-07
6.323838648057501e-07
1.051678129622748e-06
1.7142715544990718e-06
2.733437273410584e-06
4.2570770645301385e-06
6.468879472016191e-06
9.585131203421627e-06
1.3846457416125367e-05
1.950496089158324e-05
2.6808718302128347e-05
3.598682069371054e-05
4.723836875443972e-05
6.0727398007932686e-05
7.658246118982974e-05
9.489524616686179e-05
0.00011570882694389931
0.00013898518544098472
0.00016454547636843078
0.00019198572148182948
0.00022058353553984866
0.00024922407156871177
0.00027638024819977346
0.00030017872594322704
0.0003185671332653318
0.00032957220155701075
0.00033160959178088364
0.00032378356993806795
0.00030610682687369554
0.00027958206959238736
0.0002461158567691702
0.00020827391012893684
0.0001689247069676397
0.00013084369671185117
9.635700741429002e-05
6.709005355468042e-05
4.385803230437772e-05
2.6700826081400437e-05
1.5034008216816591e-05
7.867910341341457e-06
4.041334531731141e-06
2.424305029034906e-06
2.060750772662854e-06
2.2412920248566035e-06
2.51303612982492e-06
2.6440607213795368e-06
2.5640750357313514e-06
2.3006612608659043e-06
1.9247781085121894e-06
1.512372495972188e-06
1.1229959565404918e-06
7.923736622383466e-07
5.341440933489459e-07
3.460500950678873e-07
2.1699256560345962e-07
1.3283965806210622e-07
8.019935081150321e-08
4.825426538979189e-08
2.919121088145549e-08
1.7838402857868464e-08
1.1002658010212853e-08
6.811638974928685e-09
4.198668045282707e-09
2.555893494683605e-09
1.5263129029983223e-09
8.899385482933823e-10
5.051460671442026e-10
2.787004221485645e-10
1.4936708095782786e-10
7.776060720559739e-11
3.933676830592862e-11
1.9347430859564668e-11
9.259465736739239e-12
4.316995837980788e-12
1.9639522095666406e-12
8.739719648587493e-13
3.8179377222522873e-13
1.6454889007988692e-13
7.043379000214065e-14
3.019018459523162e-14
1.3080044816003714e-14
5.782527136520562e-15
2.6299903185034057e-15
1.237495372001378e-15
6.034450767231551e-16
3.0396169222635643e-16
1.568627441885199e-16
8.219321087673546e-17
4.3632758238992634e-17
2.3501677112225552e-17
1.2532480234338568e-17
6.129950805592288e-18
8.99670689421147e-18
4.801098292488443e-18
2.9195450790531886e-18
1.6228677080495498e-18
5.109328058659607e-19
3.798668702619997e-20
5.030377406403356e-19
1.7516318442564208e-18
3.880504527505487e-18
8.426179264709401e-18
2.0532416024707196e-17
5.517294274036492e-17
1.5543073956330493e-16
4.4289607080533516e-16
1.2486077190782896e-15
3.433998559258003e-15
9.136525233837108e-15
2.3415163150424743e-14
5.768757219160523e-14
1.3649055094105605e-13
3.099756313781492e-13
6.757279099489668e-13
1.415440437367455e-12
2.856716637073505e-12
5.583780320180932e-12
1.0656373676093975e-11
2.0075501966202665e-11
3.778070423798237e-11
7.167151099069154e-11
1.3732593922549026e-10
2.639897224763872e-10
5.025744448127691e-10
9.332685861155052e-10
1.666668237926377e-09
2.82795491872273e-09
4.511882680316254e-09
6.704156148786209e-09
9.19295474165759e-09
1.1554566465336057e-08
1.3394052579655881e-08
1.514020159325908e-08
1.9784037656693582e-08
3.592249230864773e-08
8.221199563725757e-08
1.927662794070987e-07
4.22165847459221e-07
8.477727250957986e-07
1.5663460586780452e-06
2.6820406268536344e-06
4.2842104455252e-06
6.41623285029825e-06
9.040518548515289e-06
1.200905235575016e-05
1.5051703497286059e-05
1.7794365009284868e-05
1.981428588939239e-05
2.0730487074242497e-05
2.03145747518244e-05
1.8595351828631984e-05
1.5924384138092797e-05
1.2973417363394451e-05
1.064956850301066e-05
9.937304408053674e-06
1.170001217566697e-05
1.6489575349206047e-05
2.441320038626549e-05
3.5091664971136674e-05
4.771733615514478e-05
6.119304026215137e-05
7.431358401703789e-05
8.594604653021594e-05
9.517277842652101e-05
0.00010137734480530958
0.00010427134720600736
0.0001038732226194296
0.00010045602782719923
9.44805828054438e-05
8.65259953408741e-05
7.722463379711247e-05
6.720507219964007e-05
5.7044881499424396e-05
4.7234731623604014e-05
3.8155096162824106e-05
3.0066215913406498e-05
2.3110754273919057e-05
1.7327107172572488e-05
1.2670116264846614e-05
9.035357547843103e-06
6.283352675719392e-06
4.260836869812401e-06
2.817329080357848e-06
1.8163826735028716e-06
1.1418190182958245e-06
6.998460222261697e-07
4.182288528353283e-07
2.4367317133983515e-07
1.3839752620862164e-07
7.660677534849703e-08
4.1308229033867605e-08
2.1684353933496672e-08
1.1071316181178263e-08
5.492088848930516e-09
2.645000138282064e-09
1.2374995689570624e-09
5.651891979140082e-10
2.557890900843915e-10
1.188238624686281e-10
6.025658398952414e-11
3.5531486948734956e-11
2.4557607962689103e-11
1.8825264206467842e-11
1.5019434217806488e-11
1.1995167459916118e-11
9.425774028140977e-12
7.244145285155466e-12
5.437376478601637e-12
3.985844212442481e-12
2.8541493815048077e-12
1.9966189297776763e-12
1.3643715932522686e-12
9.105192017934439e-13
5.932440756580356e-13
3.772431247849227e-13
2.3404993950529095e-13
1.416349335043592e-13
8.358887645643182e-14
4.812333890874986e-14
2.7057729246534143e-14
1.4901983199930026e-14
8.090569433135544e-15
4.382537320416462e-15
2.4159685564138545e-15
1.3919267094823015e-15
8.592854636548648e-16
5.737830031622034e-16
4.0918231874975496e-16
3.035091323702603e-16
2.2795701461756803e-16
1.6981180688433625e-16
1.2362204282531682e-16
8.693893557174534e-17
5.841463412333387e-17
3.702115168676284e-17
2.1758947248245007e-17
1.1570575303489114e-17
5.349578797591838e-18
2.0064150896049614e-18
5.705224006653419e-19
3.0263186884364795e-19
7.835147731395205e-19
1.9452962469558854e-18
4.023762749824159e-18
7.433901848205307e-18
1.260071211229112e-17
1.9804385709533637e-17
2.911400156487846e-17
4.047999312881291e-17
5.403047143929502e-17
7.057224695832043e-17
9.223932520584885e-17
1.2316550333685307e-16
1.6998833556073597e-16
2.41924476596762e-16
3.5010211608632174e-16
5.058202265231781e-16
7.174782391111042e-16
9.861737453281065e-16
1.3005379201508466e-15
1.6324536770422373e-15
1.9370907154733745e-15
2.1633729241413665e-15
2.2846022966579652e-15
2.3632207980605145e-15
2.667797087235282e-15
3.8627986870723145e-15
7.290465116910999e-15
1.5357026528704565e-14
3.202192159968872e-14
6.33717796438458e-14
1.1825129566743386e-13
2.0894209089018698e-13
3.519621861670407e-13
5.692474930849225e-13
8.90321504024767e-13
1.3566052221606463e-12
2.029812172274685e-12
3.007506093541013e-12
4.450651855567647e-12
6.631138568921827e-12
1.00136321857868e-11
1.5399522868854646e-11
2.4188260418446897e-11
3.886525806241659e-11
6.392590185758141e-11
1.0762457452111037e-10
1.8524970736567274e-10
3.251631474607556e-10
5.797695676942539e-10
1.0451964389541628e-09
1.8962890589634987e-09
3.4484244501580264e-09
6.2659438307642804e-09
1.1350483910321422e-08
2.0463157240249394e-08
3.66638722390666e-08
6.518859523927162e-08
1.148263309812508e-07
1.999904875470969e-07
3.4368378850326187e-07
5.815036633198187e-07
9.666955594148461e-07
1.5760148821387358e-06
2.515813629560751e-06
3.92738329385589e-06
5.990276833127901e-06
8.922256646774517e-06
1.297481994177759e-05
1.842399197861714e-05
2.5557123623612414e-05
3.4657427426085665e-05
4.598841019115586e-05
5.977970345587527e-05
7.621386575264795e-05
9.541094770096628e-05
0.00011740510813352853
0.00014210697704446025
0.00016924829578775281
0.00019831218785290486
0.00022846210553012408
0.0002584920807587643
0.0002868262118979096
0.0003115924479588396
0.0003307828729835051
0.00034249147895196955
0.00034519611891077975
0.00033803154132753545
0.00032099249603052447
0.0002950142085101409
0.000261901384697032
0.0002241104743603877
0.00018442387379451365
0.00014557939466914753
0.00010992683109209532
7.917401467350842e-05
5.4260921425704846e-05
3.536962226068388e-05
2.2048816070160845e-05
1.3411493127126875e-05
8.356662494034086e-06
5.770784687002421e-06
4.678118271093891e-06
4.326534101410716e-06
4.211511387220331e-06
4.0524873975056495e-06
3.741015526704756e-06
3.279746422180139e-06
2.7268325751891564e-06
2.154197103744099e-06
1.622191148246586e-06
1.168793513185165e-06
8.091712167036043e-07
5.409343465195429e-07
3.5119799465286234e-07
2.229191936108781e-07
1.3933731731943016e-07
8.63699799072299e-08
5.3392827365788665e-08
3.301826561448056e-08
2.042263532938687e-08
1.2596267435512113e-08
7.710064557023487e-09
4.658679710356214e-09
2.7655252529041275e-09
1.6067929517480004e-09
9.112663186013527e-10
5.036027065841404e-10
2.7093487066492e-10
1.418347246342532e-10
7.224524721135035e-11
3.58129733885532e-11
1.7286330696143197e-11
8.132084856043912e-12
3.734332405772308e-12
1.6781029366101614e-12
7.407720334524577e-13
3.23034808472486e-13
1.4023749304753467e-13
6.120263607999495e-14
2.714974411553267e-14
1.2373320167078189e-14
5.840296691779868e-15
2.8651711307837485e-15
1.458446703037255e-15
7.654669222032647e-16
4.1054583552652003e-16
2.230003615588023e-16
1.2178982237853703e-16
6.630227122015464e-17
3.536654663335635e-17
1.8091837741170575e-17
2.828207841187653e-17
1.4982837191841264e-17
7.80414797355511e-18
3.52128069401747e-18
1.0902536196029954e-18
3.0978750437134325e-19
6.630066935084463e-19
1.3534294804993136e-18
2.155627570154383e-18
4.157207621662843e-18
1.0558560049999619e-17
2.938959559134455e-17
8.253129995792151e-17
2.314188281870249e-16
6.435301909690234e-16
1.7540033308954925e-15
4.642115055368779e-15
1.1870302132134669e-14
2.924784830993967e-14
6.928224357632935e-14
1.5741974146554861e-13
3.424621614180696e-13
7.128523948828928e-13
1.421887021600347e-12
2.7313000139108057e-12
5.1041581120592756e-12
9.433660331618804e-12
1.760942291678389e-11
3.381071118760228e-11
6.713702482395942e-11
1.3628485311414552e-10
2.766345280493779e-10
5.488791155815493e-10
1.0458962940219441e-09
1.8913520441103474e-09
3.221668846951551e-09
5.1475102794484076e-09
7.710298115973236e-09
1.0893852028977962e-08
1.4827644273040532e-08
2.0418576713164968e-08
3.0737174957749975e-08
5.3490986215705094e-08
1.0474714199547458e-07
2.1363466317949074e-07
4.270566878852353e-07
8.126014465465276e-07
1.4571484638519222e-06
2.4585317604758287e-06
3.908454180984229e-06
5.866889536669818e-06
8.33136499326739e-06
1.1208210381878099e-05
1.4295990929761852e-05
1.7292391356835237e-05
1.9833256966338854e-05
2.1565465799021852e-05
2.2244473581197176e-05
2.1835472655006686e-05
2.05886050623668e-05
1.9058280825879623e-05
1.804705312744889e-05
1.8474345464599682e-05
2.119381951437908e-05
2.6801891078648832e-05
3.5486278258078795e-05
4.695431269243494e-05
6.045893248124295e-05
7.491360104762276e-05
8.906516944221837e-05
0.00010168279986672675
0.00011172341421515667
0.00011844662265455759
0.00012146871166469661
0.00012076004641071994
0.00011659948793183372
0.0001095024907517042
0.00010013806641259195
8.92462307040277e-05
7.756387958525269e-05
6.576417495116326e-05
5.441244636017567e-05
4.393989829141712e-05
3.463471619618441e-05
2.664847403018432e-05
2.001431319731735e-05
1.467249889403907e-05
1.0498841217746047e-05
7.332055380075137e-06
4.99720817044449e-06
3.32365792820457e-06
2.1570688323836683e-06
1.365983370860347e-06
8.439933977146842e-07
5.087749099495614e-07
2.992163633254449e-07
1.716695373493802e-07
9.607646143937503e-08
5.244694757953503e-08
2.792433332200273e-08
1.4503011610705302e-08
7.351980249673964e-09
3.6438079594828447e-09
1.7727394579339496e-09
8.537310701218997e-10
4.135098044593409e-10
2.0675020598221677e-10
1.1036064175294579e-10
6.467209074256062e-11
4.179155914397848e-11
2.915355476595126e-11
2.1285418742499054e-11
1.585312232580935e-11
1.184973858248961e-11
8.808140507611575e-12
6.477672675319205e-12
4.698313703775231e-12
3.3532909134031167e-12
2.3508474040887056e-12
1.616443462850976e-12
1.088850920627779e-12
7.179039619372813e-13
4.630210929280394e-13
2.9204452346256586e-13
1.8015106388001247e-13
1.0873925236004483e-13
6.430101583079523e-14
3.733624245132378e-14
2.1374156722106786e-14
1.2145308765719997e-14
6.9205106928614604e-15
4.0097864339965964e-15