# vtk DataFile Version 4.1 
COMMENT
ASCII
DATASET STRUCTURED_POINTS 
DIMENSIONS 300 300 1 
ORIGIN 0 0 0
SPACING 0.020943951023931952 0.020943951023931952 0 
POINT_DATA 90000
SCALARS U double 1
LOOKUP_TABLE default
6.092842739501834e-19
4.973798741798536e-19
6.908537294736779e-19
1.6283196252398731e-18
3.632644444898816e-18
7.359828562744335e-18
1.4631953388886622e-17
2.9578456468484937e-17
6.056905147599467e-17
1.238559871299882e-16
2.4972405507667447e-16
4.90844539384682e-16
9.299347865235514e-16
1.6802181403623611e-15
2.872143369110681e-15
4.6382216345730365e-15
7.17675447291595e-15
1.1138580403461306e-14
1.8848440948868955e-14
3.709961165643682e-14
8.196504444474048e-14
1.8434921897493746e-13
3.910069265320345e-13
7.503385760667066e-13
1.2711421395934275e-12
1.859373159162466e-12
2.2935812034488753e-12
2.4114502433673116e-12
2.8428595301477093e-12
6.802765997949662e-12
2.3624659570648627e-11
7.500005151549332e-11
2.0582246143022024e-10
5.043315339049507e-10
1.14297835461801e-09
2.464938272401449e-09
5.164927149437273e-09
1.0650937131595246e-08
2.1730590314930565e-08
4.384799885425102e-08
8.720997419688754e-08
1.7028419803988026e-07
3.253102704162414e-07
6.065894592062236e-07
1.1023159370739126e-06
1.950434805773106e-06
3.3582787310683434e-06
5.624380689080375e-06
9.158830200702622e-06
1.449601543608903e-05
2.2291114066066018e-05
3.329021473878377e-05
4.826472734314301e-05
6.790499758938979e-05
9.267639920273588e-05
0.00012265299574261573
0.00015735679922864793
0.0001956407722403644
0.00023565642259017305
0.00027493848722688364
0.00031061895715953254
0.0003397537473405554
0.0003597147294150729
0.00036857674098587717
0.00036542170874858976
0.0003504942300876894
0.0003251729279076221
0.0002917619710422607
0.0002531463331807306
0.00021238193056555935
0.00017230078658016438
0.00013520067791016546
0.00010266292234376274
7.550945606361234e-05
5.3880310338605866e-05
3.739218107901605e-05
2.5331302706566504e-05
1.6838472615250745e-05
1.1056918293877929e-05
7.22955397159052e-06
4.7463442425444134e-06
3.152017633443143e-06
2.1284023601402868e-06
1.4650706600833165e-06
1.0285891678276335e-06
7.363880093635707e-07
5.374991340355713e-07
3.9988089339285707e-07
3.028159086192605e-07
2.3263094954613798e-07
1.8030401452826355e-07
1.400189307119901e-07
1.0816793323389724e-07
8.259486347311128e-08
6.201844588198168e-08
4.5622419155978657e-08
3.2797715791652125e-08
2.3007624601964838e-08
1.5738022121675613e-08
1.0495735556794489e-08
6.826203741449362e-09
4.3322498987399704e-09
2.6853599361461503e-09
1.6275984408107407e-09
9.659730770048208e-10
5.6234020778333e-10
3.217614627072821e-10
1.8138935326586501e-10
1.0102887349121951e-10
5.577267768297901e-11
3.0625236680805366e-11
1.6790251287953873e-11
9.225471754309315e-12
5.0974574025520805e-12
2.839873066795274e-12
1.5976037048766505e-12
9.076061433266897e-13
5.199843886885239e-13
2.99638736899008e-13
1.7303294466702284e-13
9.968872318525193e-14
5.700285370498458e-14
3.2154760919837294e-14
1.7762527925511892e-14
9.520390070954619e-15
4.891417889883116e-15
2.3704042134691228e-15
1.0610393817785462e-15
4.299697765050142e-16
1.6214768826417666e-16
7.483120825459654e-17
6.57450339608527e-17
8.126053997689436e-17
9.648114271476685e-17
1.0262537299274943e-16
9.908510759194359e-17
8.860876244913591e-17
7.461218578630752e-17
5.99066633673987e-17
4.6304983667573715e-17
3.46995581884415e-17
2.5328395132183258e-17
1.805561292570327e-17
1.2584147467013233e-17
8.582032212963351e-18
5.73903977518278e-18
3.782489173212404e-18
2.4778387570266105e-18
1.6296954309088916e-18
1.0885426896403182e-18
7.615441680651324e-19
6.234011729915488e-19
7.248063199654837e-19
1.1999218403423974e-18
2.2786000614251247e-18
4.312040147379148e-18
7.821054883726535e-18
1.3573606920028883e-17
2.2692966528707366e-17
3.6790541475278765e-17
5.810934706826402e-17
8.965657948797965e-17
1.3529798485252582e-16
1.9978335750995735e-16
2.88672005771718e-16
4.081312173224186e-16
5.645966579476335e-16
7.643297246285211e-16
1.0130203749639908e-15
1.3158250958375003e-15
1.6786757831919141e-15
2.1124153309641404e-15
2.6423158952440565e-15
3.3266719455776317e-15
4.289023974697476e-15
5.768373988178279e-15
8.18927461079736e-15
1.224730908161319e-14
1.8993542127602476e-14
2.9882866667732755e-14
4.672635958105984e-14
7.1461218643143e-14
1.0563627257982945e-13
1.4953722405650734e-13
2.010156222347776e-13
2.5450645271098486e-13
3.0181082546566873e-13
3.3888581847588176e-13
3.8919725581056805e-13
5.688456415303189e-13
1.2520712024415444e-12
3.4703265517540367e-12
9.840751660213901e-12
2.6664780096423537e-11
6.854577626232422e-11
1.6827700470015895e-10
3.974195802914964e-10
9.078494265940236e-10
2.0129860691568227e-09
4.34129134360688e-09
9.11610429577078e-09
1.8646804503794698e-08
3.7156909854271056e-08
7.212147756734881e-08
1.3632873984259898e-07
2.508987828104898e-07
4.494524498734187e-07
7.83482739943453e-07
1.3286921649881421e-06
2.191591038191454e-06
3.5150140159116263e-06
5.480490797089793e-06
8.304787463941822e-06
1.2227703525519137e-05
1.748870638507734e-05
2.4291500235595275e-05
3.275825063857652e-05
4.287865387440693e-05
5.4462641494526384e-05
6.710814763101671e-05
8.019580578027829e-05
9.291973457398256e-05
0.00010435752590306967
0.00011357405179092168
0.00011974471087160549
0.00012227680439876035
0.00012090523629028886
0.00011574197110384727
0.00010726729541225382
9.626287433571813e-05
8.369878221090279e-05
7.05959808656957e-05
5.788993888874716e-05
4.6319566753016854e-05
3.635920757386499e-05
2.8201880619148667e-05
2.1791484651269707e-05
1.6892273167903943e-05
1.317732530869791e-05
1.0315234649859764e-05
8.036472862575846e-06
6.167531513105765e-06
4.630432262752421e-06
3.414855192945314e-06
2.536959143219146e-06
2.0007718444767524e-06
1.7744535406987977e-06
1.786502940727754e-06
1.9391332760381137e-06
2.130604989855128e-06
2.2769103250981498e-06
2.3256042236747744e-06
2.259013217317391e-06
2.08833604786179e-06
1.842694389243284e-06
1.5575564461002765e-06
1.2657032383290313e-06
9.920515370478873e-07
7.520738351486221e-07
5.526999024585885e-07
3.9443192201471916e-07
2.736882818586144e-07
1.8481002440652148e-07
1.2151974357000893e-07
7.784264449286146e-08
4.85967695476809e-08
2.9579469383290294e-08
1.7561700327683615e-08
1.0175921889685074e-08
5.758264274514504e-09
3.1844908920425518e-09
1.7225609897487809e-09
9.121794262714518e-10
4.73330496188676e-10
2.409078370492915e-10
1.203853693720924e-10
5.912514765332453e-11
2.8568444801236243e-11
1.3594193172445543e-11
6.376798056207132e-12
2.9515867035025643e-12
1.3493485427998747e-12
6.098316716010623e-13
2.727074416568759e-13
1.2076336114492213e-13
5.299351116916771e-14
2.305750990755996e-14
9.953259385566917e-15
4.265814561887949e-15
1.8163519425796107e-15
7.682149139993144e-16
3.2241289966748617e-16
1.3444343648093126e-16
5.617954664347036e-17
2.3741172940226974e-17
9.903292732633155e-18
3.739081855296001e-18
1.2044183559364916e-18
5.564343731622588e-19
6.068891254877755e-19
6.73113281112098e-19
1.1023946109183178e-19
1.4796662086219149e-19
8.281295703312543e-19
1.9677080966008175e-18
3.763612732770571e-18
7.377426600451548e-18
1.53621468439934e-17
3.2499207798170415e-17
6.794293343913334e-17
1.394062426744058e-16
2.7967262496889565e-16
5.451589045667991e-16
1.0259000655370133e-15
1.8580478044991738e-15
3.2507012565444436e-15
5.5746672504078e-15
9.643593775187968e-15
1.7449878463117538e-14
3.371218733328145e-14
6.836268919347983e-14
1.3900705256508016e-13
2.6990057766245187e-13
4.806280171256431e-13
7.57039487944963e-13
1.0076921432408975e-12
1.0435696877640936e-12
6.851844571013483e-13
1.8731761139273023e-13
1.2367281329982218e-12
8.782052754348548e-12
3.396399670323103e-11
9.87864200214827e-11
2.447581863130556e-10
5.519898190523009e-10
1.184130393808446e-09
2.490514794734109e-09
5.223100309963045e-09
1.0966893877078586e-08
2.2945910433357825e-08
4.746204912944519e-08
9.6360349154172e-08
1.9108954045125413e-07
3.691154708473159e-07
6.935781535864407e-07
1.2670353807824582e-06
2.2497247545955404e-06
3.881790197383773e-06
6.507188217409452e-06
1.059450389976472e-05
1.6746972847583804e-05
2.569138278272377e-05
3.8234456148556895e-05
5.517730863232654e-05
7.718492645620614e-05
0.0001046186177415329
0.00013735365218520064
0.00017461832518774072
0.00021489940898016135
0.00025595722965637976
0.0002949783337666456
0.00032886583590690816
0.0003546329074905707
0.00036983311512307906
0.00037294293640283745
0.00036361427782190844
0.00034273954662955493
0.0003123129306947247
0.00027511761829498326
0.0002343066179234489
0.0001929642338049357
0.00015373183971172983
0.00011855822850109572
8.859995500260867e-05
6.426150131582392e-05
4.533818275794335e-05
3.121183482850045e-05
2.105085909746137e-05
1.3978435298954342e-05
9.189816743870873e-06
6.015956650863447e-06
3.9424023519854325e-06
2.5980179163485233e-06
1.7283483866615598e-06
1.1652412575311002e-06
7.998485716196058e-07
5.620143394097368e-07
4.061849289742819e-07
3.025165498168533e-07
2.314872186801117e-07
1.8058332682174702e-07
1.4211091121852573e-07
1.116194515238119e-07
8.671617063167588e-08
6.619147366409217e-08
4.941905777277843e-08
3.599029072405436e-08
2.5528919596740505e-08
1.7626721995474856e-08
1.1846601163670006e-08
7.752910776299268e-09
4.943982700256536e-09
3.0748571605195245e-09
1.8672357372296207e-09
1.1086444673917488e-09
6.446400535643867e-10
3.678192274991232e-10
2.0643627628964407e-10
1.1429680736480305e-10
6.264585698324158e-11
3.412993242597999e-11
1.8567791067409402e-11
1.0136072341145537e-11
5.5777696676381024e-12
3.105509822735236e-12
1.7530354893238137e-12
1.003316525885004e-12
5.809647200649573e-13
3.3901284242735957e-13
1.9832248176247333e-13
1.1561025423381763e-13
6.671079638363118e-14
3.782092723695339e-14
2.0881893373877557e-14
1.1102066818496467e-14
5.595018631381778e-15
2.6093631042011865e-15
1.0811423783232004e-15
3.675586430705132e-16
8.566558031632334e-17
1.3192083257345642e-17
2.6747313103661442e-17
6.283945481776169e-17
9.307585210343934e-17
1.0840832344951803e-16
1.0931842343713876e-16
9.998605349979041e-17
8.512574009470877e-17
6.854848712047768e-17
5.275579565751203e-17
3.906746927564615e-17
2.795123902943313e-17
1.936122079257171e-17
1.2997917482352447e-17
8.471895715164841e-18
5.389541984521768e-18
3.3905439107147093e-18
2.1629242884496806e-18
1.4515172429454925e-18
1.0659720853575856e-18
8.879863923239387e-19
8.75392970822427e-19
1.062288125241011e-18
1.5581044468601673e-18
2.552623109991893e-18
4.336697465480631e-18
7.348610061859769e-18
1.2252797215423874e-17
2.0051150703999813e-17
3.2217936254490164e-17
5.0838763184776685e-17
7.872343119427829e-17
1.1945317921644694e-16
1.7731588060712209e-16
2.5707922549854537e-16
3.6355491380991015e-16
5.009247739680841e-16
6.718517296459998e-16
8.765204045050115e-16
1.1119988170767354e-15
1.3727519358598581e-15
1.6538279005776756e-15
1.959180201456909e-15
2.3186558682537673e-15
2.8180190282226054e-15
3.646327045699326e-15
5.163023020945113e-15
7.98199866116352e-15
1.3060455993536684e-14
2.1766304894387088e-14
3.588080821129031e-14
5.747923044352448e-14
8.863559057716472e-14
1.3094860522938397e-13
1.8504812575534185e-13
2.506509335418937e-13
3.2869210850325477e-13
4.2924278857108236e-13
5.938904663080312e-13
9.525442417451684e-13
1.860176272763761e-12
4.216180860446953e-12
1.0194502973356201e-11
2.48809143138674e-11
5.986925652740552e-11
1.409777330092983e-10
3.243749190934373e-10
7.293165405664429e-10
1.6025514653358058e-09
3.44087391868483e-09
7.216244635246381e-09
1.4774270750201812e-08
2.9512478678286117e-08
5.748782649787915e-08
1.0914605099950655e-07
2.0189310844849808e-07
3.637145591453501e-07
6.379545346394987e-07
1.0891480050078497e-06
1.8094212807386202e-06
2.9244279114736185e-06
4.5971204555741585e-06
7.027008926485159e-06
1.0442156966048635e-05
1.5081322551198782e-05
2.116466516511056e-05
2.885349371458748e-05
3.820252329104093e-05
4.911155922433398e-05
6.128654857987671e-05
7.422140032051647e-05
8.721082413092857e-05
9.940013187652568e-05
0.00010987083047359113
0.00011775228844189313
0.00012234196431006706
0.00012321203473446458
0.00012028055348890717
0.00011383101524257699
0.00010447429861540827
9.30589860721582e-05
8.054695978374179e-05
6.787822995251413e-05
5.585053115763917e-05
4.503512920539631e-05
3.5741660048596e-05
2.8033752094240955e-05
2.1786178688651265e-05
1.6765829030000146e-05
1.2714866277565258e-05
9.41609107604422e-06
6.727380477556507e-06
4.582199642217195e-06
2.9634711647249337e-06
1.8652027782944255e-06
1.2579472156159875e-06
1.0701768859826864e-06
1.189969945451752e-06
1.4833124475334696e-06
1.8199485574979512e-06
2.0966780931849334e-06
2.2509025174020523e-06
2.2621154004413455e-06
2.143575651377288e-06
1.92894970813454e-06
1.6588639888230642e-06
1.3707490241810275e-06
1.0932233043708905e-06
8.445285882552613e-07
6.336437823627737e-07
4.626196068542538e-07
3.290617733942327e-07
2.281940307587319e-07
1.5433050390845083e-07
1.0180933826090473e-07
6.551787106538636e-08
4.1137648698088915e-08
2.520849946328858e-08
1.508214859650961e-08
8.815161935694807e-09
5.0366959597149085e-09
2.815482489796562e-09
1.5410968185010465e-09
8.267610326612988e-10
4.351324309986529e-10
2.2489530695863467e-10
1.1425743415746725e-10
5.711603788040973e-11
2.812022308355385e-11
1.3648179394413479e-11
6.5361675145217625e-12
3.091356528119728e-12
1.4451834548975164e-12
6.683378481418758e-13
3.059801192288462e-13
1.3877412106189297e-13
6.238943119851889e-14
2.7820231092183387e-14
1.231145559002358e-14
5.409488806740248e-15
2.3604864617682432e-15
1.0232500622096337e-15
4.412354638550764e-16
1.8969148834192993e-16
8.119135160615446e-17
3.4169859096230537e-17
1.3932953113115568e-17
5.72289587323248e-18
2.7287046957843625e-18
1.515937849411265e-18
1.5691521948084173e-18
3.399513032184783e-19
3.0272076719380743e-19
7.863379179300534e-19
1.2163283810808294e-18
1.7323351743163157e-18
3.3195479133906993e-18
7.57808786715188e-18
1.698275421617594e-17
3.641870868713259e-17
7.628024762831858e-17
1.572707571523122e-16
3.176450882062477e-16
6.248235464455201e-16
1.195462591275501e-15
2.2346482394497747e-15
4.124429803671714e-15
7.635439433401726e-15
1.4401933424905594e-14
2.783977392115241e-14
5.453458129968132e-14
1.0546740926689695e-13
1.949697748274313e-13
3.333540289568064e-13
5.090132641987518e-13
6.628147122802395e-13
6.792568309395579e-13
4.581184401820103e-13
1.7376681954939368e-13
8.396497415578657e-13
5.2331635310057165e-12
1.9137160832633394e-11
5.296558594544165e-11
1.247544254673497e-10
2.681937489453761e-10
5.551337502677681e-10
1.1523655250602337e-09
2.4496520325287555e-09
5.323911733807117e-09
1.1650385851749967e-08
2.5246898060342046e-08
5.355542287665234e-08
1.105349995525614e-07
2.2145342161986208e-07
4.3047977439143595e-07
8.121008489999302e-07
1.4872514215945479e-06
2.6444405596909242e-06
4.564832579016048e-06
7.648036175722449e-06
1.2432335479392175e-05
1.9599755104775846e-05
2.9953752559235085e-05
4.435707519234221e-05
6.362117725982914e-05
8.834777378815172e-05
0.0001187373006310705
0.00015439565093653182
0.000194184624713628
0.00023616687529886274
0.0002776875361079812
0.0003156105104880801
0.0003466913902842201
0.00036803029929039475
0.00037751873199646206
0.00037418549156658905
0.0003583633085170411
0.0003316366337918273
0.00029658175595703674
0.0002563579743133443
0.00021423932538465048
0.00017318237220549437
0.00013550708461460521
0.000102732583887118
7.556935098287427e-05
5.403601316258284e-05
3.764971468442576e-05
2.5636371434707088e-05
1.7117674530129457e-05
1.1249374797052437e-05
7.303588236744018e-06
4.701774730323182e-06
3.0125193643794923e-06
1.929656569976026e-06
1.2435516711198128e-06
8.138477583390935e-07
5.476093286488971e-07
3.8361620123637627e-07
2.818383790106363e-07
2.165793673544888e-07
1.7193371906867984e-07
1.386274833570446e-07
1.1171705559387441e-07
8.889478092116486e-08
6.928315395116238e-08
5.2639384242069816e-08
3.8890259935573446e-08
2.7909413448851697e-08
1.9451199882235938e-08
1.3169055233175339e-08
8.666307419636264e-09
5.547897490412984e-09
3.45816938012598e-09
2.1011651025085937e-09
1.2460067123527005e-09
7.222404748785394e-10
4.099637394339299e-10
2.2840971809988438e-10
1.252753512796821e-10
6.789314948263994e-11
3.652905930558282e-11
1.9623286090369226e-11
1.0592831465747496e-11
5.78329889596352e-12
3.2109562548732883e-12
1.818742067477103e-12
1.0509666040936609e-12
6.175490081307943e-13
3.668575750115518e-13
2.1873277451802364e-13
1.2987535913870457e-13
7.618583531922369e-14
4.37881610095561e-14
2.443123194731271e-14
1.3081122713787002e-14
6.615368104171469e-15
3.0834687169035614e-15
1.269388957472187e-15
4.2303938763981443e-16
9.101689977681388e-17
8.031019501389938e-18
2.6523832190334782e-17
7.083976254211868e-17
1.0746390981935568e-16
1.2596051510714194e-16
1.2713179992024974e-16
1.160587232971293e-16
9.838459143096967e-17
7.86575560323775e-17
5.987640947666137e-17
4.364426923312686e-17
3.0547427522413806e-17
2.0544070344573224e-17
1.3267963495931859e-17
8.227542727747461e-18
4.918666864393387e-18
2.8806931162699777e-18
1.7219493374549793e-18
1.1313444003795368e-18
8.83742656114896e-19
8.407543445197755e-19
9.464988562928286e-19
1.219116964790212e-18
1.7420828341447345e-18
2.663102252767819e-18
4.210914824506251e-18
6.74019521969056e-18
1.0811041069200575e-17
1.7302059156355343e-17
2.7545440658710218e-17
4.3459929785061505e-17
6.764485008864974e-17
1.0338694082536559e-16
1.5452308726068877e-16
2.250978609060032e-16
3.1875887615852905e-16
4.378542417913382e-16
5.822533777396246e-16
7.480377527957055e-16
9.264498014926954e-16
1.10390409396755e-15
1.2645026555549493e-15
1.3973557855808654e-15
1.5119822798425108e-15
1.6658572930185038e-15
2.008251938249461e-15
2.8430675112310166e-15
4.709477639463912e-15
8.472158163168866e-15
1.540299010049303e-14
2.72259020678749e-14
4.609280733325225e-14
7.44758228786816e-14
1.1502702680457318e-13
1.7062507568937856e-13
2.452030974340111e-13
3.467548842063794e-13
4.956364262509415e-13
7.450434020819474e-13
1.2289605879075036e-12
2.271904284490136e-12
4.6376466865711475e-12
1.0089142923200134e-11
2.263715668845103e-11
5.1284273295829405e-11
1.1593570274540878e-10
2.598216406609029e-10
5.748777454513582e-10
1.2520216190231865e-09
2.677514321674327e-09
5.611350244335784e-09
1.15057202101387e-08
2.305228989891216e-08
4.508565233346795e-08
8.601215759914111e-08
1.599669704768416e-07
2.8990681184555483e-07
5.117899067816553e-07
8.798385277168977e-07
1.4725842213315295e-06
2.398940297444699e-06
3.802952256869151e-06
5.865236538666049e-06
8.798611697652708e-06
1.2835315636215798e-05
1.8203782463256757e-05
2.5094454118592452e-05
3.3616561817214134e-05
4.37509469167984e-05
5.530713599982464e-05
6.789506584270443e-05
8.092201554271929e-05
9.362267255995432e-05
0.00010512473331867924
0.00011454483602696203
0.00012110165125360823
0.0001242268259757869
0.0001236522433427514
0.0001194548988879427
0.00011204839890813296
0.00010212100691027515
9.053162781187561e-05
7.818420554834044e-05
6.590538576836274e-05
5.434884900568018e-05
4.394281777597307e-05
3.488660598283608e-05
2.719037101560213e-05
2.074243555535873e-05
1.5383260673143053e-05
1.0965838589834025e-05
7.388702130588404e-06
4.597859816580514e-06
2.564387530864937e-06
1.2515865080812872e-06
5.871959495485695e-07
4.519634810381258e-07
6.880356275213708e-07
1.1225548530838127e-06
1.5967227971976849e-06
1.9899905379099826e-06
2.2324376747493862e-06
2.303706750761489e-06
2.2215980868992022e-06
2.0259155594564345e-06
1.7630373206485492e-06
1.4747635340891408e-06
1.1925415097643474e-06
9.362516114180561e-07
7.158324633366516e-07
5.340373647841264e-07
3.8914223145221167e-07
2.770497861104389e-07
1.9269652202709365e-07
1.3089829823979938e-07
8.682035072192662e-08
5.62185200017705e-08
3.554163950477404e-08
2.194418412930686e-08
1.3238433907986492e-08
7.808613902221537e-09
4.506853514878184e-09
2.5475190076591143e-09
1.4116066303575816e-09
7.675082031488556e-10
4.098733507240451e-10
2.1519605637709927e-10
1.1118576585371097e-10
5.6584214054563234e-11
2.8389685966802875e-11
1.4054626645051524e-11
6.871179203239715e-12
3.3200198325567894e-12
1.5866235469699086e-12
7.504760858680615e-13
3.515718337709748e-13
1.632191268314916e-13
7.513767336364253e-14
3.431670749137137e-14
1.555668247981444e-14
7.00278803498305e-15
3.1316986918347014e-15
1.3923078952527275e-15
6.15587168017814e-16
2.703091268549812e-16
1.1753848699036897e-16
5.0739155350330975e-17
2.2182291151478774e-17
1.0034170124611556e-17
4.440658977485751e-18
6.156271505415402e-18
2.5651827790803257e-18
1.5823347250593037e-18
1.2762430551139416e-18
7.977408252688597e-19
4.845530233970753e-19
1.2318386979732018e-18
3.775249569293859e-18
8.930490730062735e-18
1.9096796116809165e-17
4.057230351011055e-17
8.658374950972547e-17
1.8240177875501158e-16
3.7554968795363497e-16
7.557549950868569e-16
1.4934803296893392e-15
2.917909225873377e-15
5.680512673362626e-15
1.1086853761721047e-14
2.1698557603963947e-14
4.221775933976787e-14
8.028850618675093e-14
1.4601012946671184e-13
2.478841997675121e-13
3.8302727471061656e-13
5.241072202528634e-13
6.189347669038793e-13
6.414611318926907e-13
7.528753731755296e-13
1.618209709659282e-12
4.845126240240458e-12
1.3391099004165953e-11
3.179830171022988e-11
6.66716172000701e-11
1.2955091102644925e-10
2.4800297951473006e-10
4.972279202047887e-10
1.0751120070132591e-09
2.4615181275491082e-09
5.734141342519545e-09
1.3169624962503482e-08
2.9354926100335625e-08
6.318469702042568e-08
1.3133046317669077e-07
2.64017291500702e-07
5.141714601772216e-07
9.71083705565486e-07
1.779466073364247e-06
3.163899059499306e-06
5.456895823805703e-06
9.126007322498118e-06
1.479175519582853e-05
2.3224487941189098e-05
3.53059985027537e-05
5.194294499551203e-05
7.392572957149954e-05
0.00010173934753543292
0.00013535040923675707
0.00017401278379250616
0.00021614650201930754
0.00025934370431957455
0.00030053716457140574
0.00033633234435981904
0.0003634607214288929
0.0003792730354847201
0.0003821697477471689
0.00037187167653332683
0.00034946717757592744
0.00031722457434504614
0.0002782142670530007
0.00023582734511255892
0.00019329470958036045
0.00015329957241856114
0.00011774282748992532
8.76774626186805e-05
6.338846852625582e-05
4.456877940428347e-05
3.053373680643521e-05
2.0424316920545785e-05
1.336670837714487e-05
8.575458774480756e-06
5.403485829831932e-06
3.351793687792303e-06
2.054635681382525e-06
1.2539351859971134e-06
7.724972182665831e-07
4.910458155324443e-07
3.30676476329714e-07
2.4030942463091385e-07
1.8795600968303178e-07
1.5460372325625028e-07
1.2983998827411337e-07
1.0867607007481522e-07
8.926990129421154e-08
7.136571340433544e-08
5.530802349754406e-08
4.149391834171112e-08
3.013190092851558e-08
2.119033894090269e-08
1.4443284346420253e-08
9.550083700763572e-09
6.131616698791272e-09
3.826417694871767e-09
2.3232733397987465e-09
1.3739769589093081e-09
7.92475415017531e-10
4.4648258195907854e-10
2.4622281052493927e-10
1.332805729201804e-10
7.108694124086238e-11
3.755669748937739e-11
1.979225459888701e-11
1.0494653939422144e-11
5.652422394673605e-12
3.11907179834697e-12
1.7726831881103453e-12
1.037754861743949e-12
6.225230454990354e-13
3.792831015878195e-13
2.3230743998148654e-13
1.4161652159640118e-13
8.514523251365237e-14
5.0064763915067156e-14
2.8544434386542494e-14
1.5628442872238336e-14
8.116673267885501e-15
3.9319272232352145e-15
1.7352233341850053e-15
6.779645621324348e-16
2.364337638779983e-16
9.942579343569489e-17
9.173764645336067e-17
1.224226531887245e-16
1.5032364118789456e-16
1.6169402726212482e-16
1.5623430481319948e-16
1.3889570327135197e-16
1.1551324441690728e-16
9.084903527343551e-17
6.802857718140916e-17
4.867593704946107e-17
3.3311324128398125e-17
2.176978215908497e-17
1.3534774569928352e-17
7.962387255962088e-18
4.412354915906402e-18
2.3148121871491783e-18
1.1991436878507014e-18
7.029547908722219e-19
5.70743261606002e-19
6.460451398666662e-19
8.584152286285885e-19
1.2072315897549778e-18
1.746991814384882e-18
2.5820768490371234e-18
3.8812412448191076e-18
5.921764389444471e-18
9.169147280536245e-18
1.4390145186984603e-17
2.2785402194123244e-17
3.6114409417652376e-17
5.677179564728228e-17
8.776196687849448e-17
1.3251060893435326e-16
1.944486732592308e-16
2.7631113184502757e-16
3.7911749659511116e-16
5.008604820121608e-16
6.350514251642114e-16
7.694967935622263e-16
8.860572560449628e-16
9.627088830070642e-16
9.799853488607482e-16
9.34743923397921e-16
8.649346355480735e-16
8.892358297220932e-16
1.2644378448574375e-15
2.4606443265443996e-15
5.249362201495946e-15
1.0793028160176938e-14
2.0719317325118706e-14
3.7166472707004405e-14
6.281011078503197e-14
1.0095111223330799e-13
1.5589963467368805e-13
2.3420774361226027e-13
3.4793501308475003e-13
5.224148910803564e-13
8.137158663327079e-13
1.347043620636672e-12
2.4011147197717597e-12
4.595013694418767e-12
9.304823246612697e-12
1.9592094971356656e-11
4.225315629991001e-11
9.226264797205267e-11
2.021806881958398e-10
4.4151508792677394e-10
9.553578451454838e-10
2.0389884477728072e-09
4.277064189018365e-09
8.79422069969816e-09
1.768984038814417e-08
3.4763617763966266e-08
6.667765795543431e-08
1.2473726351001933e-07
2.274905525981321e-07
4.043211889663162e-07
7.001043410082055e-07
1.1807755687593696e-06
1.939296813758492e-06
3.100993610646191e-06
4.826638162827187e-06
7.311095520879494e-06
1.0775047953962129e-05
1.5447533947088478e-05
2.1538037051280893e-05
2.9198766935803595e-05
3.848047508154243e-05
4.9288189374296734e-05
6.134585119429601e-05
7.418001937633463e-05
8.713168090184018e-05
9.940133893259766e-05
0.00011012625273532138
0.00011848117136581023
0.0001237870099635571
0.00012560773814971373
0.0001238158956194678
0.00011861216465789468
0.00011049347892787967
0.00010017514631793948
8.848261775176445e-05
7.623513497654241e-05
6.414469955789787e-05
5.27491999670015e-05
4.238927235124049e-05
3.3227039091502685e-05
2.5294454091818575e-05
1.855258997546477e-05
1.294271259936988e-05
8.415447384708437e-06
4.933782045085628e-06
2.4556573203457684e-06
9.08835070222641e-07
1.7218862210132808e-07
7.33634747048009e-08
4.050393290403848e-07
9.542294241627569e-07
1.534351924665114e-06
2.0097215465325826e-06
2.306009148608136e-06
2.4058894828889898e-06
2.333978093965665e-06
2.137528453691665e-06
1.8689214216962375e-06
1.57364587922465e-06
1.2846567463758734e-06
1.021872767645674e-06
7.946501055439078e-07
6.052029887547684e-07
4.516528954200458e-07
3.301726096611266e-07
2.3624467948095172e-07
1.652996644140703e-07
1.1301506172732949e-07
7.546464081207948e-08
4.920702222363953e-08
3.133726888238281e-08
1.950026773601416e-08
1.1864651797337645e-08
7.064184541068362e-09
4.11967624549039e-09
2.3555000259932805e-09
1.3217670864401963e-09
7.286313830191257e-10
3.949665181234528e-10
2.1072459575207072e-10
1.1075379694374654e-10
5.739300468054191e-11
2.9347287210359454e-11
1.4819084622173324e-11
7.395021229326639e-12
3.649443279939157e-12
1.7822611224989237e-12
8.618780478506268e-13
4.1295901797744954e-13
1.96153802358244e-13
9.241467854387207e-14
4.320638942669192e-14
2.0054598332754107e-14
9.245561760736901e-15
4.2352608832344425e-15
1.9280485938837008e-15
8.720343545300175e-16
3.919018062849332e-16
1.7546549987088022e-16
7.865752660736054e-17
3.517961644079122e-17
1.5237582420652034e-17
2.431669108330904e-17
1.1284881234364245e-17
5.730918679895119e-18
2.788966809209695e-18
8.256024659272794e-19
7.746836854419291e-21
6.490383508189398e-19
2.3863308396726123e-18
4.899221156648745e-18
9.51276621723256e-18
2.052907244733766e-17
4.6413610689787176e-17
1.0295465903055423e-16
2.2160633653778598e-16
4.66730942392227e-16
9.683783100156302e-16
1.9863188555834184e-15
4.038321625397731e-15
8.149042975453921e-15
1.6290239355369415e-14
3.2038978645580423e-14
6.127803511984636e-14
1.1230439400204599e-13
1.9414100920939464e-13
3.12031552770453e-13
4.620547896145243e-13
6.349682830508226e-13
8.521533724423204e-13
1.2638715276405544e-12
2.3190656815971625e-12
4.9437068782731605e-12
1.0561060399458116e-11
2.0780990047935208e-11
3.695841002222268e-11
6.09689645624309e-11
1.0086610560908609e-10
1.8893849881732043e-10
4.258355153271966e-10
1.0751146604891205e-09
2.753170091818295e-09
6.7999753546562874e-09
1.5990935137611573e-08
3.587589424809541e-08
7.722048174745538e-08
1.6027570486464913e-07
3.218823000843607e-07
6.266428935050743e-07
1.1834057371391113e-06
2.167842594754037e-06
3.850640574027828e-06
6.628456894937727e-06
1.1051226054354446e-05
1.7835095288400168e-05
2.7846415722659104e-05
4.204088043695672e-05
6.134553687878323e-05
8.648189637220505e-05
0.00011774566767394752
0.00015477960382741633
0.0001963941655680683
0.0002404979874138979
0.00028418957684229145
0.0003240312581241551
0.0003564813988123704
0.00037841374905553014
0.0003876189828508655
0.0003831764853141144
0.0003656091914839095
0.0003367850514052751
0.0002995903418005459
0.00025745356137404414
0.00021382818939326962
0.00017174106481311917
0.00013348411236665896
0.0001004825011428189
7.33271605489382e-05
5.192658441892304e-05
3.571851241314596e-05
2.388581713648392e-05
1.55369328354711e-05
9.831594719256272e-06
6.050715699644479e-06
3.6209882555901965e-06
2.1095149641458052e-06
1.2029914037836901e-06
6.821976397151525e-07
3.9810769194180513e-07
2.5227652099315705e-07
1.8186469272862152e-07
1.4859973792992528e-07
1.3073315542868786e-07
1.1720008354415386e-07
1.0342484077557901e-07
8.839760902890727e-08
7.274729093105111e-08
5.757895426975952e-08
4.3866490590948505e-08
3.2215139645399516e-08
2.284168348463866e-08
1.56593830690175e-08
1.0393531670717583e-08
6.6862558193381244e-09
4.173135492208893e-09
2.529237494478629e-09
1.489842909012111e-09
8.537277727501314e-10
4.764515298221405e-10
2.5936505340017593e-10
1.3803717735668032e-10
7.208012579030023e-11
3.713326464205691e-11
1.902995306613232e-11
9.814818241931943e-12
5.1681072896796976e-12
2.8184546155774744e-12
1.6070629369440669e-12
9.583847266278726e-13
5.923914172356742e-13
3.7409294808196285e-13
2.3776288473338644e-13
1.5016445681068917e-13
9.330964405420016e-14
5.660024940082439e-14
3.329045557301073e-14
1.8862821867913847e-14
1.0226829481103767e-14
5.270627419594284e-15
2.5738592930730653e-15
1.205421886324171e-15
5.751078880139448e-16