# vtk DataFile Version 4.1 
COMMENT
ASCII
DATASET STRUCTURED_POINTS 
DIMENSIONS 300 300 1 
ORIGIN 0 0 0
SPACING 0.020943951023931952 0.020943951023931952 0 
POINT_DATA 90000
SCALARS U double 1
LOOKUP_TABLE default
9.447510965551846e-20
4.47535495042823e-19
1.934243038244698e-18
4.6924894536628435e-18
9.918068541463278e-18
2.1525572605151252e-17
4.860169741965819e-17
1.108899714959322e-16
2.518483959954314e-16
5.682293339941502e-16
1.2750792704284183e-15
2.8457483224588542e-15
6.3074277326518605e-15
1.3850723486416402e-14
3.005099074714716e-14
6.422476294712433e-14
1.3476379271062758e-13
2.76647302033217e-13
5.535352460605626e-13
1.0754718975973147e-12
2.0216842045642137e-12
3.665034641450493e-12
6.3923842160579335e-12
1.0721777140773705e-11
1.7354768353903402e-11
2.741418733203203e-11
4.3273065681956986e-11
7.085578056678083e-11
1.2501273851453773e-10
2.4039927610260094e-10
4.908106575837359e-10
1.019444836412674e-09
2.08049016036106e-09
4.089272413500198e-09
7.677149734736667e-09
1.3755858008836322e-08
2.3625763935951326e-08
3.922604068130578e-08
6.372802298439007e-08
1.0280506491185677e-07
1.6703776455025283e-07
2.7597320966480937e-07
4.6428006098409593e-07
7.901659776230743e-07
1.3457173494244497e-06
2.2680905342022597e-06
3.7495765526554097e-06
6.0435685683873655e-06
9.462537042420299e-06
1.4363515185875271e-05
2.111670472898245e-05
3.0054130647295903e-05
4.1398297106045684e-05
5.5175767938879404e-05
7.112718047414573e-05
8.863220268676847e-05
0.00010667321415290086
0.00012386225114997324
0.00013854940902648552
0.0001490162535533243
0.00015373632525203203
0.00015166127214159922
0.00014247289153224477
0.0001267362409058508
0.00010590213248737185
8.213830128121037e-05
5.801018881148111e-05
3.607245724146252e-05
1.8458017655736487e-05
6.55363295171099e-06
8.289029838240972e-07
8.45805371203316e-07
5.43157285178822e-06
1.296180084934439e-05
2.168251651663091e-05
3.0002050990257178e-05
3.670201219648011e-05
4.104351174896936e-05
4.277142748105298e-05
4.203934623132538e-05
3.928785845145569e-05
3.510935974978546e-05
3.0126028199613193e-05
2.489765494962605e-05
1.9865703136028823e-05
1.5331597497289593e-05
1.1461895059564769e-05
8.310744035678875e-06
5.850313440412825e-06
4.0017601804289455e-06
2.6618674218296414e-06
1.7229975674855136e-06
1.0859930856894286e-06
6.669439003380199e-07
3.993509223879149e-07
2.333076333515637e-07
1.3309382232396917e-07
7.420776059829548e-08
4.04856294778499e-08
2.164396554242263e-08
1.1359456487455845e-08
5.866897323043819e-09
2.991414257282559e-09
1.5122461738168298e-09
7.623393137061577e-10
3.8616133005257645e-10
1.9846690170594057e-10
1.0466164305504565e-10
5.7266218424588656e-11
3.2776016695534375e-11
1.9667165774203006e-11
1.231512209484826e-11
7.968147433358767e-12
5.263837410066288e-12
3.5104916937707137e-12
2.341906965964254e-12
1.552390023153463e-12
1.0180036486988707e-12
6.5879957468132e-13
4.2041136617598807e-13
2.647268173166303e-13
1.6479104975988233e-13
1.0169011488562821e-13
6.240376210467481e-14
3.819581379943259e-14
2.3367932973086245e-14
1.4303805795219546e-14
8.760898668601641e-15
5.369870704171966e-15
3.298859030206495e-15
2.03986782324297e-15
1.2790976242107057e-15
8.208076255970823e-16
5.429684055344007e-16
3.7072770698359314e-16
2.596218496848707e-16
1.84347433308613e-16
1.3109143171354849e-16
9.243429303700509e-17
6.420395399250609e-17
4.374931971748204e-17
2.914042615029556e-17
1.8877763725289148e-17
1.181078431114481e-17
7.095273055442102e-18
4.127976633896652e-18
2.4651923648573587e-18
1.7575966028825748e-18
1.7270222429646257e-18
2.1887532306355405e-18
3.1012103373602544e-18
4.614691198824527e-18
7.096258001346996e-18
1.1126629705357931e-17
1.749023169663701e-17
2.720264863206314e-17
4.1632125319812455e-17
6.27664669388118e-17
9.36486334150412e-17
1.3895074658989298e-16
2.0557799227678793e-16
3.0309825858335225e-16
4.4369792914875516e-16
6.413010828409044e-16
9.095075935587936e-16
1.2581717113666816e-15
1.688837096489687e-15
2.189953278626241e-15
2.7338974910010698e-15
3.2793462439401786e-15
3.7844097033586e-15
4.237879728684387e-15
4.717314370101729e-15
5.482308683728189e-15
7.107277251352401e-15
1.0647684572366606e-14
1.781359599565229e-14
3.1091591081790936e-14
5.3709544033772195e-14
8.928370118357599e-14
1.4094271661536338e-13
2.0973547020984154e-13
2.9229907572854907e-13
3.782927952517804e-13
4.493841853252244e-13
4.843436586048051e-13
4.804226405799471e-13
5.121069942458165e-13
8.688389605570965e-13
2.350638081077376e-12
6.866450027639099e-12
1.8592422293493584e-11
4.6131566341335646e-11
1.0640515289220226e-10
2.3143646890143998e-10
4.797923694135109e-10
9.552455495441096e-10
1.8362044874163901e-09
3.4206042375257115e-09
6.1922609189524744e-09
1.0916298649068835e-08
1.8773602501725738e-08
3.154830409166483e-08
5.1889708273537005e-08
8.368300607802795e-08
1.3258368015705613e-07
2.0679937332552966e-07
3.1823757372861145e-07
4.841701671489489e-07
7.295835709505486e-07
1.0903690728721392e-06
1.6174468069166242e-06
2.3818011311328133e-06
3.480240114838091e-06
5.0414923007118375e-06
7.232031763455374e-06
1.0260767263658129e-05
1.4381398012519981e-05
1.98907638178347e-05
2.712088024795616e-05
3.642167067666608e-05
4.813104156716715e-05
6.252949016332151e-05
7.977855963498409e-05
9.984657369603375e-05
0.00012243089624049358
0.00014689216748900788
0.00017222033499823765
0.00019705228957118083
0.0002197547477619452
0.0002385737423890737
0.0002518361131636827
0.0002581730983487293
0.00025672641801878856
0.0002472966833634959
0.0002304033319837848
0.00020724217961525963
0.00017954648564170723
0.0001493751124283496
0.00011886315999805691
8.997477773098712e-05
6.429505728934581e-05
4.2889473273458776e-05
2.6247044319287594e-05
1.4309047284381885e-05
6.570762577792979e-06
2.231806038797979e-06
3.6367703075559236e-07
6.305407490127227e-08
5.662317861693705e-07
1.311939097977899e-06
1.9530522027271185e-06
2.328586785638656e-06
2.413161317813472e-06
2.26123348745128e-06
1.959140899666489e-06
1.5917290737850516e-06
1.2245007195906853e-06
8.982897155391551e-07
6.3185237334613e-07
4.2800851827577387e-07
2.8020379138454176e-07
1.7780977002367265e-07
1.0963464807529066e-07
6.581236896668529e-08
3.852284209385569e-08
2.201414432946063e-08
1.229191226443643e-08
6.7091316925807835e-09
3.579833218545781e-09
1.866627630537599e-09
9.505252835735843e-10
4.723361807606346e-10
2.2894335255160786e-10
1.0829918650437972e-10
5.0117480257771415e-11
2.2809566707031835e-11
1.0299719554425475e-11
4.668048054845877e-12
2.1474335618150007e-12
1.0085397747271996e-12
4.817982092687743e-13
2.311545461951761e-13
1.0943755175994367e-13
5.0213611416597704e-14
2.1962074626730694e-14
9.013176690377456e-15
3.410551848765234e-15
1.161813197045939e-15
3.4246913538077495e-16
8.063065842202919e-17
1.2373482491454932e-17
9.677553097316923e-19
1.6434794444181558e-18
2.5853350007528694e-18
2.303187094548377e-18
1.7325338284851203e-18
1.4392750907884834e-18
1.1428864678050588e-18
5.610666646782856e-19
1.7746330650910635e-19
3.9490308842330393e-19
1.0543577584160577e-18
1.7779934644724895e-18
3.085503992819814e-18
6.785331474072998e-18
1.6496851542408797e-17
3.9780656688926603e-17
9.382050725715691e-17
2.184897290425563e-16
5.057362433997509e-16
1.1645941862582567e-15
2.662267103205117e-15
6.0250379757764404e-15
1.346577484855446e-14
2.965062479642313e-14
6.415233466231576e-14
1.359782845752218e-13
2.8148322549384926e-13
5.673717276570088e-13
1.1106868770430632e-12
2.1076992400939006e-12
3.874658439515599e-12
6.910182029811488e-12
1.2014227303015267e-11
2.0568223305044857e-11
3.5237335042412315e-11
6.164662853852252e-11
1.120200948254031e-10
2.1224853603633572e-10
4.140413118718525e-10
8.131451332912804e-10
1.5725209669118987e-09
2.946094026880572e-09
5.296635805960879e-09
9.106576520500501e-09
1.5003255328651593e-08
2.387225839861078e-08
3.722176205502881e-08
5.808191278502288e-08
9.285062228042024e-08
1.5458401397016186e-07
2.68217028257923e-07
4.780310620077181e-07
8.57320547172847e-07
1.5196280024773934e-06
2.6301120827967827e-06
4.414601766966289e-06
7.162745803715301e-06
1.1220592929836747e-05
1.6967345960138753e-05
2.4771559176639414e-05
3.4924440313916844e-05
4.7552735451371645e-05
6.252085405368406e-05
7.93403172491994e-05
9.71119298280215e-05
0.00011452899068921015
0.00012996506567806152
0.00014165549306835407
0.0001479589728421951
0.00014765918603236848
0.00014024445951243763
0.00012609494973945233
0.00010651792753883271
8.360280361477034e-05
5.991146539796724e-05
3.806345448995069e-05
2.0305267778042354e-05
8.158451961712493e-06
2.2201866745495085e-06
2.149708475558093e-06
6.827358642789555e-06
1.4634399032234632e-05
2.378112194429372e-05
3.2611277430717454e-05
3.982866316507057e-05
4.461875244078889e-05
4.666555422319034e-05
4.608470393570584e-05
4.3304818984191964e-05
3.893058351506967e-05
3.361531336709997e-05
2.7961251682086666e-05
2.2455677439246292e-05
1.744231270915342e-05
1.3121667507643896e-05
9.571104985082556e-06
6.775120812228703e-06
4.657825291688533e-06
3.1120215006700167e-06
2.021826065738287e-06
1.2779483919155577e-06
7.862593817540091e-07
4.711011077803637e-07
2.750296568239622e-07
1.565323506681898e-07
8.690918542927594e-08
4.710835037508864e-08
2.495278510344713e-08
1.2932304280866241e-08
6.569231369341432e-09
3.27865993015555e-09
1.613573616404583e-09
7.873423814264872e-10
3.8407343302812007e-10
1.8958253603824692e-10
9.624079178388215e-11
5.117502479323805e-11
2.8935319020474634e-11
1.748412874062242e-11
1.1203347211030608e-11
7.488550925049305e-12
5.126992202109932e-12
3.5406597500635288e-12
2.4394790231318767e-12
1.6650212253366744e-12
1.1210585435048795e-12
7.430012726350312e-13
4.844044668699051e-13
3.1078231367684495e-13
1.9644466012139947e-13
1.2253593536032213e-13
7.555582830423528e-14
4.611727745415698e-14
2.788651427756214e-14
1.6707740342720247e-14
9.9172125858884e-15
5.83604073299843e-15
3.4159747238832515e-15
2.0046250829079607e-15
1.1963600454771997e-15
7.401524670789541e-16
4.82910888882921e-16
3.3396056227948873e-16
2.42021380878108e-16
1.7987628182493524e-16
1.3415794929145245e-16
9.878640399788447e-17
7.10557776242385e-17
4.9561287874751806e-17
3.328662210023126e-17
2.1318662619616737e-17
1.282388195234962e-17
7.080897324893434e-18
3.488818270530493e-18
1.5475921144295188e-18
8.367945639065796e-19
1.0163210852977042e-18
1.853474089229374e-18
3.2617873610324127e-18
5.328277690547137e-18
8.31183060753236e-18
1.2614107449183092e-17
1.8749152107962373e-17
2.735989526845008e-17
3.933991899094616e-17
5.610946709111038e-17
8.00605416185157e-17
1.151252448451121e-16
1.6733750900014703e-16
2.451614620189742e-16
3.5927034009388003e-16
5.21410718531284e-16
7.420235113117869e-16
1.0264729879633676e-15
1.370123352681084e-15
1.7531660482589974e-15
2.137095744029464e-15
2.466079366810113e-15
2.6780989088285755e-15
2.732451128600799e-15
2.661448834213956e-15
2.6540485717953165e-15
3.1761148922249098e-15
5.124005262486008e-15
9.992654172388304e-15
2.0014348344437552e-14
3.8190202692041306e-14
6.809905274787843e-14
1.1334629716836745e-13
1.765497154731782e-13
2.579352058797207e-13
3.5409644408851265e-13
4.585667107840362e-13
5.681311490725098e-13
7.033291606044918e-13
9.602848997316134e-13
1.6273067893998538e-12
3.429616131687522e-12
8.019138372923351e-12
1.8919455038396884e-11
4.329245700680647e-11
9.514537008938824e-11
2.0098450810442034e-10
4.094877757891765e-10
8.07547868318761e-10
1.5460529931426305e-09
2.8800255841635307e-09
5.22924095263315e-09
9.267274962989558e-09
1.604934260755553e-08
2.719287114258723e-08
4.513050255957778e-08
7.346446651971363e-08
1.1746521687308873e-07
1.8477609319100557e-07
2.8640757139454716e-07
4.381242327469429e-07
6.623366030690288e-07
9.905990315318487e-07
1.4667771999184684e-06
2.150885545328107e-06
3.123515779319636e-06
4.490695903600104e-06
6.388935031431908e-06
8.990088677098337e-06
1.2505439086537482e-05
1.7187909711003498e-05
2.3330537278495134e-05
3.1258266445618205e-05
4.130912832134636e-05
5.3800539587005855e-05
6.897762961944011e-05
8.694385608316554e-05
0.00010757979864148882
0.00013046301012438317
0.0001548081298917863
0.00017944941798578846
0.00020288500968731433
0.00022339250952741618
0.00023921032317643812
0.00024876197538124307
0.00025088654416978136
0.0002450318688946829
0.00023137090331196053
0.00021081498012647098
0.00018491748790832113
0.0001556825979173115
0.00012531133375203758
9.592793832350688e-05
6.933157672448818e-05
4.681212662786067e-05
2.905570762706786e-05
1.6148227365513442e-05
7.666862416482172e-06
2.833745430133989e-06
6.966245825922959e-07
3.000588178606987e-07
8.178219402182852e-07
1.630232647322033e-06
2.3450506543209824e-06
2.773083130406045e-06
2.87671145710647e-06
2.71034439767343e-06
2.3676245912976266e-06
1.9435996437831247e-06
1.513620222523777e-06
1.1261980177145932e-06
8.050117357787983e-07
5.552813914883775e-07
3.7095785331980854e-07
2.4072396158858474e-07
1.5209795720065164e-07
9.374167892572086e-08
5.643342828733647e-08
3.321533802550419e-08
1.912404248216775e-08
1.0773482069611786e-08
5.938046935258263e-09
3.2013295904133105e-09
1.6876106336192223e-09
8.697301765931565e-10
4.383096062247459e-10
2.1625218837319895e-10
1.0471717253484931e-10
4.9981480984783825e-11
2.365570310801703e-11
1.1178183941706289e-11
5.304386384292017e-12
2.5335501636666085e-12
1.2144568635839694e-12
5.795393087001665e-13
2.721679049106073e-13
1.2418534180647552e-13
5.4346836315746195e-14
2.2517527902218474e-14
8.710191890804462e-15
3.0931383541430138e-15
9.870007469578993e-16
2.764899873682979e-16
6.92298879526268e-17
2.0653910383888345e-17
1.234715416442307e-17
1.0293148970435262e-17
7.988836314015987e-18
5.67039612666311e-18
3.7906594500136846e-18
2.1694256963539062e-18
8.238409091837987e-19
1.2921050155217821e-18
9.911883634255494e-19
8.671496474296113e-19
6.028806461381058e-19
6.656456620530317e-19
1.904194514370313e-18
5.501650081188949e-18
1.4022824967839143e-17
3.390942137128695e-17
8.097248413517232e-17
1.9326250379740746e-16
4.603770752137827e-16
1.0885886255117955e-15
2.545060493146166e-15
5.8729427157334614e-15
1.335889197168035e-14
2.9893174672045116e-14
6.563044133444364e-14
1.4098198996755073e-13
2.9558665602791215e-13
6.037668940609976e-13
1.2002866075149387e-12
2.3228685109468288e-12
4.384756385869714e-12
8.108970029655323e-12
1.4801111510309477e-11
2.6934755989297772e-11
4.940049809050833e-11
9.202880231936845e-11
1.742527233816184e-10
3.327725171014149e-10
6.32355140423814e-10
1.1779466058033943e-09
2.123157593373012e-09
3.6676692590304335e-09
6.039039774456695e-09
9.471330125954183e-09
1.4234624493280254e-08
2.0843975809386823e-08
3.06817494136854e-08
4.738568106997745e-08
7.945097005740056e-08
1.445230067490156e-07
2.7577379061394015e-07
5.305238480147448e-07
1.0008596117532405e-06
1.8253604848237384e-06
3.2001360165929547e-06
5.386158640002127e-06
8.70846786022201e-06
1.3541582219919669e-05
2.027508738915031e-05
2.925483398218631e-05
4.069938667676235e-05
5.4598643302368076e-05
7.061104096892543e-05
8.798510334285998e-05
0.00010553654532395841
0.00012170967866357743
0.00013473872086029536
0.00014290123577029765
0.00014482707485920533
0.00013980045055665666
0.00012798018894089212
0.00011047135450536721
8.921162965658606e-05
6.66812909156629e-05
4.549295468607419e-05
2.79510516417508e-05
1.567974156553433e-05
9.398764067196883e-06
8.886288937677848e-06
1.3119764631508496e-05
2.054502610256213e-05
2.9401364803010054e-05
3.802941199026966e-05
4.510580409159338e-05
4.977539457676811e-05
5.167913166614526e-05
5.089674221318694e-05
4.7834804865004814e-05
4.3092846240070314e-05
3.733515353784734e-05
3.11872621170106e-05
2.5166464725397358e-05
1.9647291411282058e-05
1.4856877046691524e-05
1.0891809654747548e-05
7.747191825301548e-06
5.349644017764384e-06
3.588075903637951e-06
2.3385192364244076e-06
1.4815781033676695e-06
9.12759414479936e-07
5.469758234610344e-07
3.1892243229185805e-07
1.809800560751592e-07
9.998466777110097e-08
5.3794147287961327e-08
2.8197184802446334e-08
1.4406927923468666e-08
7.180704404630127e-09
3.495781253328192e-09
1.6660290794447934e-09
7.80540913640839e-10
3.622926304300904e-10
1.6894356190794626e-10
8.09824435020995e-11
4.1169212994050035e-11
2.286860604748497e-11
1.4034587845024557e-11
9.367538352401483e-12
6.593096658235849e-12
4.751293990509297e-12
3.4348046086076787e-12
2.461103947378216e-12
1.7366255081875931e-12
1.2030030761299867e-12
8.170597052729605e-13
5.43971821235876e-13
3.551573869848929e-13
2.2757406148288554e-13
1.432360781022946e-13
8.861245834670938e-14
5.3892912299635787e-14
3.2207625740217717e-14
1.889269375430391e-14
1.086323170723549e-14
6.120086866760755e-15
3.3871973943319933e-15
1.859493243967229e-15
1.0349416633009598e-15
6.055739902448987e-16
3.8737056695574767e-16
2.748105816608205e-16
2.1099755108708444e-16
1.6790355105780183e-16
1.3349593281613612e-16
1.0370323603946908e-16
7.777197853149717e-17
5.589101632522533e-17
3.820242295181875e-17
2.4548433042504262e-17
1.452566959748049e-17
7.608514634354081e-18
3.2435933796100097e-18
9.010158103866784e-19
1.0268516513122965e-19
4.490935176382845e-19
1.6511015439348191e-18
3.557330185308971e-18
6.161015173192317e-18
9.576503547957485e-18
1.3993290177075675e-17
1.963843129845346e-17
2.6797592269976306e-17
3.595166379845877e-17
4.8072019836701994e-17
6.507833959732681e-17
9.03982202866511e-17
1.2948331566845249e-16
1.900457718019745e-16
2.817034432795663e-16
4.146940486658285e-16
5.973764184255732e-16
8.324263402537015e-16
1.1120027043026886e-15
1.4127525464545834e-15
1.692378458550422e-15
1.8906221679195714e-15
1.938880962330975e-15
1.7841091533446293e-15
1.4337937993306049e-15
1.0289321376229234e-15
9.499478475823235e-16
1.954813966150684e-15
5.3376090309085474e-15
1.3078278129721794e-14
2.7931773012426178e-14
5.3383615689528324e-14
9.339636318524522e-14
1.5192358708127157e-13
2.3234448751823e-13
3.374018868819518e-13
4.711441045323404e-13
6.46207956046193e-13
9.033328292977273e-13
1.3567431228391812e-12
2.291696088046487e-12
4.363941774428447e-12
8.993509524832718e-12
1.9120966466679045e-11
4.062444704016112e-11
8.49108698545947e-11
1.7353465295356214e-10
3.4620812529785917e-10
6.7429568769153e-10
1.282865236153381e-09
2.385626383006624e-09
4.3386273363892355e-09
7.720445187492258e-09
1.3448908515011418e-08
2.294742705426624e-08
3.837828496055794e-08
6.296645662385388e-08
1.014461787037108e-07
1.6067354070172468e-07
2.5046026880367264e-07
3.846934319924343e-07
5.828084551797212e-07
8.716746753031262e-07
1.2879337299322005e-06
1.8808083367229954e-06
2.7153861707303803e-06
3.876393016737014e-06
5.472494828290692e-06
7.64116126796634e-06
1.0553977065039562e-05
1.4421849988845875e-05
1.9498699812262378e-05
2.6080916407905616e-05
3.4498406664521936e-05
4.509201369912577e-05
5.8172370859806506e-05
7.39577322661479e-05
9.24934299138694e-05
0.00011356283424165927
0.00013660733912877003
0.00016067828672449596
0.00018444404552409144
0.0002062687819736125
0.00022436598408593223
0.00023701214862985052
0.0002427888379320666
0.00024080971338294525
0.0002308871084507435
0.00021360152916497936
0.0001902553746911112
0.00016271487990936618
0.0001331664071913664
0.0001038297731845762
7.667885526678431e-05
5.321695285246874e-05
3.434211384031004e-05
2.0318619282200794e-05
1.0849225213397157e-05
5.223433648605444e-06
2.5044302518465224e-06
1.7141603970637596e-06
1.9825101037442696e-06
2.640166352768424e-06
3.2510040925609487e-06
3.59400152754042e-06
3.6132432308509237e-06
3.356370187928612e-06
2.918035025004154e-06
2.3981244494223984e-06
1.8775351572353601e-06
1.4091464602546371e-06
1.0190969082959738e-06
7.132358918116592e-07
4.847944292233745e-07
3.209547232112561e-07
2.07428055975765e-07
1.3108140882312492e-07
8.108435009200196e-08
4.9127095485874795e-08
2.9160333941233494e-08
1.6956172415918e-08
9.656664799931755e-09
5.38474135794766e-09
2.9393436180774245e-09
1.5707436782311207e-09
8.221657979078814e-10
4.2204408386614266e-10
2.129392131378521e-10
1.0593757679920462e-10
5.2177029524939885e-11
2.55461431187686e-11
1.2471647612488614e-11
6.076034036002988e-12
2.9471888586065855e-12
1.415579657733889e-12
6.681075674810316e-13
3.0709050760817316e-13
1.361991321459983e-13
5.775829478121826e-14
2.3217503293622125e-14
8.780972157925477e-15
3.1155613997551934e-15
1.0506473253066649e-15
3.5728955973831548e-16
1.4065166941172936e-16
7.221869081545673e-17
4.488779188320653e-17
2.9163530631146084e-17
1.840820351401677e-17
1.0901888500438014e-17
5.770694799684032e-18
2.653423460950567e-18
4.304416900933039e-18
2.2476412745590517e-18
9.897052951032722e-19
1.8718675880205292e-19
3.9996510139761064e-20
6.230631828511778e-19
2.004650462752646e-18
4.956048456874026e-18
1.1850033675701907e-17
2.8728607090367666e-17
7.092187871850874e-17
1.7589839155123347e-16
4.319002858542905e-16
1.0445766584232884e-15
2.4915162246336745e-15
5.866455224533239e-15
1.361451030406273e-14
3.1049248098922357e-14
6.938478395120071e-14
1.5160257976276016e-13
3.2345140409940705e-13
6.735517086859823e-13
1.3696853467030066e-12
2.7247982166805684e-12
5.3204960792391265e-12
1.0246896212210635e-11
1.958015866268614e-11
3.732804292482044e-11
7.122518182176401e-11
1.3588435648155597e-10
2.577072150222374e-10
4.812559765488413e-10
8.75057691563088e-10
1.5320237677021043e-09
2.5571107498551494e-09
4.0363311818084846e-09
5.993761312238043e-09
8.375941913076408e-09
1.1163528840283097e-08
1.4798123130524638e-08
2.1215053633205954e-08
3.5864714612210796e-08
7.115384142419387e-08
1.5171509861172867e-07
3.21795586274536e-07
6.548116804266508e-07
1.2646851113862098e-06
2.3178428909769394e-06
4.043611502958986e-06
6.7391477280942704e-06
1.0763285669065096e-05
1.651242917646111e-05
2.4371987333192506e-05
3.46400777468583e-05
4.742709075074143e-05
6.254479338952315e-05
7.940974904847155e-05
9.699397282676874e-05
0.00011385616201939618
0.00012827580307534195
0.00013848947042369633
0.0001429980018894336
0.00014088388067488058
0.0001320611558379191
0.00011738460367103411
9.857315006665518e-05
7.794863828795559e-05
5.8041093116324576e-05
4.1149192962543834e-05
2.8956888982312082e-05
2.229005438039548e-05
2.105713194386193e-05
2.4368903483440736e-05
3.0790398824244885e-05
3.865408942351653e-05
4.636170522369002e-05
5.261848531083105e-05
5.6569922349173844e-05
5.7837838152768505e-05
5.647311027839667e-05
5.2853530307978456e-05
4.7557499865536616e-05
4.12399920798732e-05
3.452943790963139e-05
2.795554158707832e-05
2.191027903702525e-05
1.663848006489502e-05
1.2250809327292305e-05
8.750567727380602e-06
6.066151073168125e-06
4.082651501281749e-06
2.6683279293037997e-06
1.6939241060761548e-06
1.0446575471494335e-06
6.259289674938594e-07
3.6439376284993815e-07
2.0611553210965555e-07
1.1327000384184715e-07
6.046721607562058e-08
3.134893073089646e-08
1.577896398847334e-08
7.707482084819364e-09
3.6523245146158044e-09
1.6790268238355505e-09
7.49766948331261e-10
3.267175381883844e-10
1.4068584327356224e-10
6.162285001450731e-11
2.896872602418657e-11
1.560632496198628e-11
9.907210778775743e-12
7.127560304471053e-12
5.446013491003506e-12
4.215313221125648e-12
3.226908698942423e-12
2.4190699496388812e-12
1.7698775601499772e-12
1.2628766161354249e-12
8.790943082099758e-13
5.97387054422338e-13
3.9659051135314005e-13
2.5737816252628526e-13
1.6334365738129218e-13
1.0136436473850176e-13
6.145636073035777e-14
3.634122167104665e-14
2.0902530483892584e-14
1.1652177823083195e-14
6.271956171886712e-15
3.2539015081137847e-15
1.636105220077648e-15
8.176173153973412e-16
4.326755445668227e-16
2.6658331929870303e-16
1.9974113598930862e-16
1.7051195195727578e-16
1.508314679071101e-16
1.306068315754676e-16
1.0821861411797927e-16
8.518269901282769e-17
6.350828894776098e-17
4.46601734047173e-17
2.9356744692800016e-17
1.771422286595361e-17
9.46864602181569e-18
4.161355726535364e-18
1.2638051083257553e-18
2.5643391475502527e-19
6.81765660757023e-19
2.181318581214321e-18
4.513558468922168e-18
7.545164637303583e-18
1.121406020984254e-17
1.547850326381872e-17
2.028635291315299e-17
2.5614114849191634e-17
3.1627668847063347e-17
3.899840671024836e-17
4.9366162388368776e-17
6.587536213972491e-17
9.363137830854416e-17
1.3984549353389658e-16
2.1338153830357915e-16
3.234130875236482e-16
4.769780642826292e-16
6.754088286558824e-16
9.099494647654454e-16
1.1573742782134544e-15
1.3771146558158162e-15
1.5122970167297967e-15
1.4981732160345781e-15
1.2825919263749442e-15
8.641725571957749e-16
3.542196349487444e-16
6.736182812254884e-17
6.42345708250433e-16
3.187294277000597e-15
9.432728456971087e-15
2.186261854964296e-14
4.378527063455387e-14
7.931729194688594e-14
1.333155776451136e-13
2.1145969652008647e-13
3.210582870381649e-13
4.739016262552731e-13
6.939226344711834e-13
1.0351457529438345e-12
1.6205079605816855e-12
2.7217314492456686e-12
4.9184084382962665e-12
9.407768274089531e-12
1.8596988672458e-11
3.7216079296871975e-11
7.43689416245886e-11
1.4723069720487142e-10
2.8754668800920286e-10
5.527420083964251e-10
1.044354269856486e-09
1.9376863108209243e-09
3.52805078580061e-09
6.300746266558869e-09
1.1033983767472927e-08
1.8946450294727904e-08
3.190421082796019e-08
5.270540975378926e-08
8.54658089562335e-08
1.361332457046533e-07
2.1316354480094e-07
3.283924989821477e-07
4.981365116308243e-07
7.445485609587287e-07
1.097251081627383e-06
1.595274582616002e-06
2.289366773872576e-06
3.244814271832467e-06
4.545028284408357e-06
6.296231869314029e-06
8.6335305910168e-06
1.172827673831688e-05
1.5795776640851382e-05
2.110097931449598e-05
2.7958012854584797e-05
3.671785086862534e-05
4.7737881414181456e-05
6.132871914371336e-05
7.767794374841058e-05
9.675744221759404e-05
0.00011822937223111321
0.0001413729951958932
0.0001650577393675452
0.00018778433503234058
0.00020780486711920572
0.00022331569099560616
0.0002326982761224084
0.00023476742407511472
0.00022897886155496318
0.00021555184189979903
0.00019547697596723502
0.000170401884193044
0.00014241213811657787
0.00011374644468563207
8.64981224529713e-05
6.235667993204027e-05
4.243344806450366e-05
2.7196154014290133e-05
1.6513646063876625e-05
9.789421059397339e-06
6.146593766988238e-06
4.621084664272991e-06
4.324772685143573e-06
4.553733611166239e-06
4.83380699701846e-06
4.911388725761809e-06
4.707534303139877e-06
4.256559384066064e-06
3.6472234932986846e-06
2.97785138011304e-06
2.3293700430333273e-06
1.7545018181378658e-06
1.27828110895806e-06
9.044951401388031e-07
6.237214471480619e-07
4.2033425115804e-07
2.7741490744790526e-07
1.7955636516920433e-07
1.1405911765878376e-07
7.112200105649383e-08
4.3524803329818325e-08
2.6129993882628793e-08
1.5381051514839232e-08
8.873152131500103e-09
5.015354048280912e-09
2.7777177677742303e-09
1.5082444129088178e-09
8.037877491878492e-10
4.2118006748498143e-10
2.1750919700716713e-10
1.1100495518438137e-10
5.6126095463531205e-11
2.8163471463453636e-11
1.4027905563970454e-11
6.92362202942918e-12
3.3738378197335798e-12
1.6148729056632065e-12
7.547389649059259e-13
3.4235537562968707e-13
1.4990662816596504e-13
6.311529372009437e-14
2.5535771214892872e-14
9.991549628848406e-15
3.8589600422510366e-15
1.5359596374701518e-15
6.694006054430486e-16
3.319057831678258e-16
1.829853205881838e-16
1.057181097386305e-16
6.079584360220887e-17
3.36028629304389e-17
1.745874567340733e-17
8.608605397871981e-18
1.2507502189733987e-17
5.527348071750183e-18
2.02220775440247e-18
5.286446340599101e-19
2.473304397222412e-19
4.564920032727845e-19
8.339818701892058e-19
1.6984455776945746e-18
3.899765940168159e-18
9.565669104557954e-18
2.4845022132054886e-17
6.523778263362727e-17
1.670126967671425e-16
4.168048434393556e-16
1.0262792188054945e-15
2.505956120129312e-15
6.051126318686757e-15
1.4378116216247937e-14
3.3496949765204553e-14
7.637230463638945e-14
1.702814511577199e-13
3.7125153271313325e-13
7.919087091959777e-13
1.6548062185502847e-12
3.3947606017698142e-12
6.8564564203493806e-12
1.3676029361500911e-11
2.700515328392482e-11
5.2825745268132844e-11
1.021564687673647e-10
1.9431199430481016e-10
3.607489776837462e-10
6.475644425413443e-10
1.1123325471931373e-09
1.8086277471264206e-09
2.7522660208785615e-09
3.872654011671973e-09
4.978213922106224e-09
5.813017325148903e-09
6.352864960157857e-09
7.573512476019274e-09
1.3002915302293329e-08
3.142279877866577e-08
8.10994449887075e-08
1.958935590795468e-07
4.335061605311043e-07
8.858934291646953e-07
1.69138061071472e-06
3.047019326809135e-06
5.21811902805273e-06
8.539761271244008e-06
1.3403076143224035e-05
2.0218287844554505e-05
2.934852899120193e-05
4.101442883410223e-05
5.517960966477502e-05
7.14396441353165e-05
8.894773342048636e-05
0.00010641401171675214
0.00012220720903103105
0.00013456578975986044
0.00014189417138240433
0.00014308714250282808
0.00013780410034746514
0.00012661468848038736
0.00011096288285625861
9.294221241300814e-05
7.492678327194793e-05
5.914366435432086e-05
4.7287858603778844e-05
4.026650795675873e-05
3.81201560069203e-05
4.011998897225917e-05
4.4997256015117204e-05
5.1236555516473386e-05
5.736237744672075e-05
6.216426836616246e-05
6.48314742997227e-05
6.499358005165853e-05
6.268288639033276e-05
5.824443487511017e-05
5.222147775899566e-05
4.524037435741679e-05
3.7912214460845945e-05
3.076112249325246e-05
2.418253226336765e-05
1.842943612033666e-05
1.3621010798728923e-05
9.766176523489205e-06
6.7944250170527576e-06
4.587322700901108e-06
3.005966903803231e-06
1.9118018082495137e-06
1.1801171728817882e-06
7.069545000344991e-07
4.1092871453728844e-07
2.317015634154104e-07
1.266768328824218e-07
6.711325478502951e-08
3.442620368038058e-08
1.7077193611264688e-08
8.178340997687251e-09
3.772663676853082e-09
1.671370827781556e-09
7.086164943105609e-10
2.8668951343524263e-10
1.1095422902327929e-10
4.204904698557419e-11
1.694411018847308e-11
8.544084237722495e-12
5.895263752903764e-12
4.918189776337414e-12
4.276333424665895e-12
3.6342658998069415e-12
2.971653064072732e-12
2.337281942782557e-12
1.7738999698877826e-12
1.3032522231252973e-12
9.29145791472976e-13
6.439767771170123e-13
4.3442017958666725e-13
2.854260166528099e-13
1.8266566724123598e-13
1.1379388739888417e-13
6.889435722848868e-14
4.042162958394479e-14
2.2881185595818855e-14
1.2415960479312715e-14
6.401753732172523e-15
3.102134225169537e-15
1.3983400468565295e-15