# vtk DataFile Version 4.1 
COMMENT
ASCII
DATASET STRUCTURED_POINTS 
DIMENSIONS 300 300 1 
ORIGIN 0 0 0
SPACING 0.020943951023931952 0.020943951023931952 0 
POINT_DATA 90000
SCALARS U double 1
LOOKUP_TABLE default
1.3582509976554224e-19
6.274583299764224e-19
1.978701759908804e-18
4.693320696932831e-18
1.0101159756084167e-17
2.221262938006106e-17
5.071228906617737e-17
1.1668119914854206e-16
2.661162369782968e-16
6.014784087332406e-16
1.3511150401205327e-15
3.0176494449634372e-15
6.691220446215756e-15
1.470071558594078e-14
3.1936257371728783e-14
6.845336796928708e-14
1.444154330335121e-13
2.9908352048319227e-13
6.063980670197698e-13
1.2005799252396484e-12
2.315901907399199e-12
4.34548295170776e-12
7.926470003485983e-12
1.4069921467345336e-11
2.438979021674827e-11
4.157937274553761e-11
7.048449340969639e-11
1.204761241953763e-10
2.1031297130955434e-10
3.7711237927966544e-10
6.909137903010648e-10
1.2747947881614734e-09
2.3267799263903095e-09
4.134096888782217e-09
7.065688966898635e-09
1.1532947223781452e-08
1.793418050747031e-08
2.66603424658451e-08
3.8347338314760727e-08
5.470670234998796e-08
8.0419293206197e-08
1.2667950458177724e-07
2.169646407038428e-07
3.9542425482777317e-07
7.379183997982798e-07
1.3651915003034857e-06
2.456960902299854e-06
4.26481049986585e-06
7.1206804605914095e-06
1.143647433825649e-05
1.7689117164159247e-05
2.6384878553427474e-05
3.799782496215324e-05
5.288084492369386e-05
7.115432278786325e-05
9.258671611517138e-05
0.00011649108093625459
0.00014166869522221632
0.00016643147250848837
0.00018872575275790217
0.00020636064981413514
0.00021731739835248592
0.00022008875526475082
0.0002139783576198695
0.0001992872287175776
0.0001773324997393946
0.00015027949002842007
0.00012081341902474155
9.17178558191057e-05
6.545061013954778e-05
4.380648679326232e-05
2.7730824651133655e-05
1.730673342931856e-05
1.1895752179225254e-05
1.0379142657403458e-05
1.1433105142097992e-05
1.377672114060861e-05
1.635104692812142e-05
1.8412961875947323e-05
1.9549921366554817e-05
1.9636424859713355e-05
1.875835368428974e-05
1.7129038563378038e-05
1.501421898839616e-05
1.2675201790945825e-05
1.0332795634744705e-05
8.150035639932274e-06
6.22936767341874e-06
4.6193377631977515e-06
3.3262848615676106e-06
2.3275125322608814e-06
1.5835362517005838e-06
1.0480432354545905e-06
6.750462986414221e-07
4.2331746492533e-07
2.5855168211488055e-07
1.5386820164045786e-07
8.925857379929493e-08
5.049460074969799e-08
2.7871219208075257e-08
1.501948818789995e-08
7.9086884513628e-09
4.0740441664432585e-09
2.0569285193640837e-09
1.0208407214019066e-09
5.003653300717858e-10
2.440251881510103e-10
1.1974163904080615e-10
6.002407601008849e-11
3.128205100593207e-11
1.7205534639147588e-11
1.0047817328391518e-11
6.193028199922421e-12
3.969051157679031e-12
2.5991096382016806e-12
1.7126721025811858e-12
1.1228018688435022e-12
7.268130167642544e-13
4.625011682238601e-13
2.888481310019743e-13
1.7729632200015684e-13
1.0751920103319446e-13
6.509141332181414e-14
3.997849610808562e-14
2.5416589586465677e-14
1.7023945357359338e-14
1.209101855593807e-14
9.028927507166886e-15
6.960324020936796e-15
5.432428966240096e-15
4.2279999771076155e-15
3.2492309301708787e-15
2.4519843952567486e-15
1.812097789208331e-15
1.310415023702681e-15
9.276716941093702e-16
6.438826973776535e-16
4.3933301582077307e-16
2.9579530547458257e-16
1.9743828125552944e-16
1.312961723096653e-16
8.733737226666877e-17
5.822722788152079e-17
3.889365672654052e-17
2.6002432900464083e-17
1.7437745718223818e-17
1.1862365341971778e-17
8.401063798921544e-18
6.4554936382278765e-18
5.626306562821301e-18
5.6970903882027314e-18
6.630290061957805e-18
8.538465141073763e-18
1.1620440218747948e-17
1.6082170152244656e-17
2.2085375563068428e-17
2.977273713185831e-17
3.939949803066272e-17
5.155617452302762e-17
6.74018814026568e-17
8.875820292242342e-17
1.1786565271813355e-16
1.5661374246413896e-16
2.051606952306971e-16
2.600935308579819e-16
3.126591914131272e-16
3.4810849652601166e-16
3.4778772950387255e-16
2.9620665889521755e-16
1.9580454419868527e-16
9.240899340911999e-17
1.1428244106684734e-16
5.269173671482882e-16
1.803868836021415e-15
4.7099504185336e-15
1.0385469285674663e-14
2.0406545504420472e-14
3.6774362609898476e-14
6.175390893393869e-14
9.744306191738971e-14
1.449187421058091e-13
2.0281261875533024e-13
2.652883779381915e-13
3.197680662178263e-13
3.456390846071647e-13
3.1698517446637696e-13
2.1577395806933972e-13
6.783020933569251e-14
2.3519157116655767e-14
5.19613204020753e-13
2.5790718201611813e-12
8.330455559852585e-12
2.1853506508533055e-11
5.046982763494347e-11
1.0657408416306384e-10
2.100049934346374e-10
3.907432802121514e-10
6.91375241830307e-10
1.1683544455602894e-09
1.8909689067231935e-09
2.9379612115862494e-09
4.3958222046640534e-09
6.373287244550184e-09
9.068929544056466e-09
1.2970414444687663e-08
1.933323584866705e-08
3.118939905839543e-08
5.526954250359794e-08
1.0536424632113438e-07
2.077517914236431e-07
4.0929427338658554e-07
7.885330381883627e-07
1.4694704005370842e-06
2.6366218727759246e-06
4.54839297213999e-06
7.544106990334986e-06
1.2038565351645575e-05
1.849756546840659e-05
2.7389116677459207e-05
3.910877354613187e-05
5.3883595615157454e-05
7.166694312984262e-05
9.204387911308115e-05
0.00011417191339769768
0.00013678166571635283
0.0001582550436680859
0.00017678474222979367
0.0001906004995424134
0.00019822882387985732
0.00019873909925531886
0.00019192482102922955
0.00017837680665455048
0.00015942492059060407
0.00013695209671136355
0.00011311270951420089
9.000937564712626e-05
6.939210049504461e-05
5.243839610565075e-05
3.965363363463487e-05
3.090234351813775e-05
2.5550950307447355e-05
2.26786014941858e-05
2.1301574514570176e-05
2.05606670665965e-05
1.983778038734904e-05
1.879147495812343e-05
1.732379263949417e-05
1.5505421833147516e-05
1.3490109269961594e-05
1.1443111156939114e-05
9.49668952679444e-06
7.733517731424239e-06
6.190487527434941e-06
4.872430764930152e-06
3.7668386722996038e-06
2.8545375345909198e-06
2.115161349600519e-06
1.52873338912245e-06
1.0754356832248352e-06
7.352081928837146e-07
4.879320494089269e-07
3.141980304717629e-07
1.9629110833471726e-07
1.1900216208449714e-07
7.004573498363484e-08
4.005771379973084e-08
2.227710650810174e-08
1.2061311265254432e-08
6.367004648012215e-09
3.283425901232435e-09
1.6583330574561938e-09
8.228508491203539e-10
4.0249496479029954e-10
1.9468059613331282e-10
9.327180923530185e-11
4.423122434754951e-11
2.068196208645914e-11
9.469916738291684e-12
4.2072719026783805e-12
1.7949315617841905e-12
7.278313870765589e-13
2.7825543744474016e-13
1.0022613733961555e-13
3.472400311070949e-14
1.241643910667788e-14
5.202054980564671e-15
2.7322866114299823e-15
1.6417957491533672e-15
9.962099913433941e-16
5.725828178063589e-16
3.0558451009133042e-16
1.508524810795341e-16
6.867968177068829e-17
2.865412841205426e-17
1.0994893526958036e-17
4.076504780320961e-18
1.6018388764752374e-18
6.675654178124664e-19
2.6135717700015226e-19
9.423393373513264e-20
2.4010571085716703e-20
2.683547344098904e-19
8.485664096790137e-19
1.6744426767764496e-18
3.0807308926406804e-18
6.809950916510776e-18
1.6828069724902656e-17
4.103583371913126e-17
9.687493643576655e-17
2.2547393719155792e-16
5.22818885719473e-16
1.2072535329009794e-15
2.7667696341651066e-15
6.27783455407409e-15
1.4080457948716222e-14
3.116696567954264e-14
6.794777773287377e-14
1.4556834004102604e-13
3.057512249590999e-13
6.283119903154646e-13
1.2611642666547146e-12
2.47014987373935e-12
4.7207077446374445e-12
8.814142534956805e-12
1.612758077448996e-11
2.9067304323443065e-11
5.1968212438176703e-11
9.288280429302165e-11
1.6698250051109486e-10
3.024982029628321e-10
5.498816249793354e-10
9.93533207407276e-10
1.7623381498117872e-09
3.0304208608740512e-09
4.9951342817514684e-09
7.821286501178853e-09
1.155938854918705e-08
1.6094088878705362e-08
2.126599636119287e-08
2.7432001251656752e-08
3.6861972790319705e-08
5.64701205652606e-08
1.0239818785612151e-07
2.068705329217625e-07
4.275213791361064e-07
8.590618741221488e-07
1.646696736720054e-06
3.000041271481448e-06
5.205293910229704e-06
8.631985886566015e-06
1.3728873645002141e-05
2.1001989736123825e-05
3.0967536958717456e-05
4.407449794916862e-05
6.0597603325792946e-05
8.051075001513615e-05
0.0001033625499854559
0.00012818605800804896
0.0001534793021301607
0.00017728771223242027
0.00019740185562363395
0.00021165599764033224
0.0002182814548886503
0.00021624336519550664
0.00020548043438207842
0.00018698069230892278
0.00016266145419221209
0.00013506972393379134
0.00010696579976315196
8.088290426419384e-05
5.875945687098351e-05
4.171733161302817e-05
3.0017538810391755e-05
2.3178445977526953e-05
2.0205288835883214e-05
1.986266939658395e-05
2.0925671019601158e-05
2.2364818422406927e-05
2.344625534669498e-05
2.3752249187977133e-05
2.3142643310752026e-05
2.1683539500235317e-05
1.9567117079449543e-05
1.7039594175533357e-05
1.4346387752298416e-05
1.16968953279694e-05
9.246986290229386e-06
7.095177388872856e-06
5.287970230902887e-06
3.830264954445112e-06
2.6976112613278508e-06
1.8480027503709184e-06
1.2318057123022059e-06
7.991651377174558e-07
5.048111893180304e-07
3.105822756423385e-07
1.861910368471379e-07
1.0881433524279539e-07
6.203181149743053e-08
3.451950228647621e-08
1.876951593106844e-08
9.984844932588044e-09
5.206053668305554e-09
2.6672337075938824e-09
1.3476674813824354e-09
6.75037033395317e-10
3.3761219560120365e-10
1.701979105573612e-10
8.746739772366755e-11
4.6361083621985085e-11
2.5580093800785133e-11
1.4750851200929788e-11
8.866330178647386e-12
5.510188190882484e-12
3.502862366974509e-12
2.253578616885511e-12
1.4541072990164447e-12
9.346993194871507e-13
5.959868874726435e-13
3.762903825184744e-13
2.354806708135981e-13
1.466592181468935e-13
9.158659942312634e-14
5.795219140540043e-14
3.759102479919438e-14
2.5232181790850058e-14
1.7585933175493286e-14
1.2675402573605502e-14
9.35811555560388e-15
6.996826071287543e-15
5.244290108756556e-15
3.910602439500489e-15
2.886651557309016e-15
2.1030897246944265e-15
1.5100858540799853e-15
1.06822369010437e-15
7.448018717099264e-16
5.124414668180699e-16
3.4851293203453093e-16
2.347575612566753e-16
1.5688458504793973e-16
1.0409095832495719e-16
6.851187239692717e-17
4.463432295966556e-17
2.871844119735468e-17
1.8275245074877877e-17
1.164255491560854e-17
7.682696463930545e-18
5.600401001479098e-18
4.8544916798878574e-18
5.120683808535885e-18
6.261027790721785e-18
8.269596908460635e-18
1.1190002493045768e-17
1.5029578302197908e-17
1.9716439160512522e-17
2.5148341209778206e-17
3.135924128122734e-17
3.878011904886061e-17
4.8503286497671176e-17
6.239243720062787e-17
8.284190887322115e-17
1.1201179381989889e-16
1.5048307635163664e-16
1.9550961729563566e-16
2.393894800494917e-16
2.6890482182039077e-16
2.672270588444272e-16
2.2007601949196946e-16
1.281850713138395e-16
2.82009629773233e-17
2.397990950567484e-17
3.2970597152423194e-16
1.3250265554477361e-15
3.619743962651702e-15
8.120186703702074e-15
1.6079196773676802e-14
2.9094339209950723e-14
4.899289789637952e-14
7.750937698594502e-14
1.1563218437750987e-13
1.624993744904831e-13
2.1381992514473172e-13
2.6010349965457e-13
2.8570176198303407e-13
2.711298662774244e-13
2.038507381567543e-13
1.0736732862642907e-13
1.0593863598632418e-13
5.53336852775081e-13
2.2690571617078728e-12
6.942857724328878e-12
1.778328557943329e-11
4.0485802312778555e-11
8.455808820534651e-11
1.6492695215136934e-10
3.035157738339569e-10
5.30088872134074e-10
8.811507703816668e-10
1.3953178414358435e-09
2.104063613681815e-09
3.019646277173717e-09
4.130285662591293e-09
5.4310319557300085e-09
7.0539650688392075e-09
9.621149615834413e-09
1.503428755218675e-08
2.8035485968559694e-08
5.9008230007688493e-08
1.2859619229815303e-07
2.747275847133946e-07
5.624410578589203e-07
1.0963988916150036e-06
2.035054529971657e-06
3.60411445108249e-06
6.105361703529273e-06
9.915469917193025e-06
1.5468724462623326e-05
2.32182847991715e-05
3.357336883847087e-05
4.6814717425463054e-05
6.299741756460279e-05
8.185729921610689e-05
0.00010274262108850411
0.0001245943036232238
0.0001459936924751498
0.00016528616072444488
0.00018077307320523578
0.00019094698281619485
0.00019472999434449296
0.00019166773797334117
0.00018203470299086346
0.00016682150385213096
0.00014759844608464514
0.00012627710820951117
0.00010481557605595807
8.492684464871369e-05
6.784948575006836e-05
5.422451273641952e-05
4.4096209922013e-05
3.702461770732281e-05
3.227179314830574e-05
2.9010029699584807e-05
2.6501402104159037e-05
2.4212916238954666e-05
2.1854442862921917e-05
1.9349547040250423e-05
1.6765116941142296e-05
1.4230512001593142e-05
1.1871350795118167e-05
9.771170925454886e-06
7.961534646367467e-06
6.432231565268307e-06
5.150014203769023e-06
4.07609485276102e-06
3.177083953483968e-06
2.428594318530643e-06
1.8136817021307239e-06
1.319195970332993e-06
9.324943220029836e-07
6.397109126486706e-07
4.2564108667893567e-07
2.746572035360556e-07
1.7193954552801647e-07
1.0449252127312656e-07
6.170408353126121e-08
3.544464062328799e-08
1.983266975009992e-08
1.0826904509020857e-08
5.77761844482533e-09
3.0204785122075772e-09
1.5507336400264056e-09
7.837289009999719e-10
3.906440450909981e-10
1.9219332348623436e-10
9.325906058078753e-11
4.4511044027844694e-11
2.0803298365813623e-11
9.467671642159734e-12
4.171525036285792e-12
1.7716288633406592e-12
7.248155541583873e-13
2.878591377140355e-13
1.1352931261004228e-13
4.6418779102765906e-14
2.0708425377317813e-14
1.0292543421269724e-14
5.519850103088469e-15
3.020675642152109e-15
1.6133460027446486e-15
8.197171870952325e-16
3.907376622481839e-16
1.7307946588017502e-16
7.06613107971517e-17
2.6460119190470325e-17
9.069050145932371e-18
2.7776673907219557e-18
6.950530367306837e-19
1.2870752684939312e-19
1.4161119310466708e-20
8.283581016354046e-20
2.8496612138131534e-19
5.474201372949385e-19
6.113646242659734e-19
6.851220144959075e-19
1.8051565447171658e-18
5.550624453534315e-18
1.435719094287614e-17
3.421604189921618e-17
8.11981341452851e-17
1.947579828150527e-16
4.667938171587008e-16
1.1082879077609685e-15
2.6008157806781635e-15
6.031883037454866e-15
1.3815840527685697e-14
3.1198473066348124e-14
6.93037906061712e-14
1.5111655357541403e-13
3.2286795429129967e-13
6.750613964794585e-13
1.3803225039763145e-12
2.7604701879685937e-12
5.4052611329663884e-12
1.038583335833351e-11
1.9647679271777902e-11
3.674668658756818e-11
6.821961411186411e-11
1.2603821159080214e-10
2.316754752440314e-10
4.2203487007007003e-10
7.563701339299739e-10
1.3208060110290432e-09
2.223111507870556e-09
3.5665386413761747e-09
5.392390135454362e-09
7.594827660655643e-09
9.848839841614515e-09
1.1661164019099867e-08
1.2752044126174415e-08
1.4084554408222713e-08
1.9944739029721576e-08
4.150511145466346e-08
1.0225864740039327e-07
2.4560061941380344e-07
5.446828275407492e-07
1.1144524807000707e-06
2.125404690124505e-06
3.817804169455047e-06
6.513729839234872e-06
1.0622212923650402e-05
1.6630367431487486e-05
2.507175876072203e-05
3.646384429987181e-05
5.121070398439595e-05
6.947622403267933e-05
9.104548859813631e-05
0.00011520526520425334
0.00014068317622434385
0.00016568402071155013
0.00018804714694541124
0.00020552129073914553
0.00021611875208928642
0.00021847956943070928
0.00021216023759177772
0.00019776907884292162
0.00017690281694178863
0.00015188833404792577
0.0001253850249409725
9.993980342531352e-05
7.75965331278391e-05
5.9641805107493545e-05
4.6527334531137245e-05
3.796060162822927e-05
3.311550942201768e-05
3.0894625078720534e-05
3.0176649534610258e-05
3.0001960494955323e-05
2.9675798644352206e-05
2.8793246541717153e-05
2.720621834561606e-05
2.495843307711253e-05
2.221175097218827e-05
1.9180120082154628e-05
1.6079418440695738e-05
1.3095106359524958e-05
1.0365700494104941e-05
7.978389536460602e-06
5.972876066873123e-06
4.350008413358028e-06
3.0824735944226257e-06
2.125535546761666e-06
1.4264603894085e-06
9.318628267634164e-07
5.927184664637917e-07
3.671851079580273e-07
2.2163535825595847e-07
1.3041877372998035e-07
7.486625918897852e-08
4.196297721037657e-08
2.299296648723275e-08
1.2335610549931105e-08
6.4937142586815e-09
3.363977874721655e-09
1.7216283842929894e-09
8.749854581665548e-10
4.445431656765299e-10
2.275923958793123e-10
1.1846563382524892e-10
6.323747313983076e-11
3.485477520755229e-11
1.9904164805122682e-11
1.1768207475977705e-11
7.171983705232007e-12
4.474760990212234e-12
2.8364622966756463e-12
1.8135240601096878e-12
1.1625736714497154e-12
7.441211171819012e-13
4.745314798636688e-13
3.0154318741730357e-13
1.9142879618546454e-13
1.2199512467325522e-13
7.855773447757629e-14
5.1468303339054515e-14
3.449283539632818e-14
2.3695561858034657e-14
1.6655071746485338e-14
1.1917417326717724e-14
8.624717759126205e-15
6.272904216988817e-15
4.561110973363221e-15
3.302725278124949e-15
2.3754052022508025e-15
1.694125163709127e-15
1.196937704030301e-15
8.373361821489894e-16
5.798999585237636e-16
3.9756773536836494e-16
2.6976446736470563e-16
1.810199055995655e-16
1.1989339084375171e-16
7.809795165777833e-17
4.9762479754189916e-17
3.0804919203150545e-17
1.8413197764970453e-17
1.0640770337951801e-17
6.119721715383105e-18
3.880537131291713e-18
3.251285882148577e-18
3.79815855025015e-18
5.27011126535091e-18
7.524678773130784e-18
1.043649590843535e-17
1.3816669730184706e-17
1.7389107687473855e-17
2.086886147517323e-17
2.4161078882635872e-17
2.7648073035942336e-17
3.2466582017903786e-17
4.061767995486577e-17
5.4725977947503216e-17
7.73030885080463e-17
1.0949701430931196e-16
1.4953191936881076e-16
1.913443898088183e-16
2.242582418891656e-16
2.3484639759392865e-16
2.1234121994625123e-16
1.5903356411696894e-16
1.0704438304442012e-16
1.4268571674004923e-16
4.393376083979671e-16
1.2991768195581353e-15
3.2026783863160414e-15
6.861514588670684e-15
1.3263633878538177e-14
2.368690886813904e-14
3.963842105004366e-14
6.265169330343626e-14
9.385265355992733e-14
1.3321004756413914e-13
1.784669299543334e-13
2.2399977260019364e-13
2.604305679070871e-13
2.769804000537544e-13
2.7067908279335064e-13
2.7014888342425906e-13
3.8737040729775165e-13
9.191508401484658e-13
2.530970107034118e-12
6.568038286811016e-12
1.5547078138652173e-11
3.3876740091532655e-11
6.88138634381974e-11
1.3155288024022678e-10
2.381207266452216e-10
4.0936907663220506e-10
6.688348838160876e-10
1.0367640908075695e-09
1.5187290653492357e-09
2.089306201938467e-09
2.6776776374623584e-09
3.1768673470118075e-09
3.5275012055368158e-09
3.977555980052703e-09
5.6976584843196346e-09
1.2037970240230303e-08
3.083632762656939e-08
7.82964205258998e-08
1.8499008119092117e-07
4.044114946400642e-07
8.241194652097892e-07
1.5787580879563594e-06
2.8631241693704232e-06
4.942058834057759e-06
8.152570473666831e-06
1.2892728628432283e-05
1.9592112157191295e-05
2.8660524120124722e-05
4.0415598464888884e-05
5.499558297190326e-05
7.22700409370837e-05
9.176683318439393e-05
0.00011263649222432323
0.00013367312288490777
0.00015340327560113413
0.00017024135137729517
0.00018269428640176554
0.00018958328802458376
0.0001902406289146183
0.0001846386752443942
0.00017341818518541694
0.00015780235797887746
0.0001394080568355483
0.0001199898481499365
0.0001011692818183502
8.420600362762488e-05
6.985697524115464e-05
5.8347631297102575e-05
4.945038950610039e-05
4.263977622213429e-05
3.7277200477037426e-05
3.277657459203736e-05
2.8714207316211605e-05
2.4867689543830056e-05
2.119112648336178e-05
1.7750569835311408e-05
1.464941625130395e-05
1.1968798958991525e-05
9.736378856440306e-06
7.92398468740602e-06
6.4650930015576955e-06
5.279555027455079e-06
4.294830838758866e-06
3.45792990667907e-06
2.737489651043985e-06
2.1189598918321525e-06
1.5970398819016334e-06
1.1688034014877217e-06
8.293440171464134e-07
5.702096936660653e-07
3.799048441991952e-07
2.45413107968938e-07
1.5384840036210623e-07
9.370393634188748e-08
5.552331941059434e-08
3.205573519007325e-08
1.8062734569379953e-08
9.952076462136362e-09
5.372206756187942e-09
2.8468249684081007e-09
1.4835945995470449e-09
7.613532589834711e-10
3.8494240473890274e-10
1.9164796679005008e-10
9.37941153594278e-11
4.50053367796022e-11
2.1107738401631774e-11
9.6511437242831e-12
4.2983716125843915e-12
1.869839752471213e-12
8.014358971712658e-13
3.4419782819461666e-13
1.5170264074335358e-13
7.017925088104789e-14
3.4325422898678056e-14
1.7492787760955487e-14
9.030903512959464e-15
4.591386759244456e-15
2.2489381243239696e-15
1.0445039541722534e-15
4.54073191476e-16
1.823923068837735e-16
6.655707583201274e-17
2.1371466176107273e-17
5.592798274128144e-18
9.839017150748445e-19
7.083261017882606e-20
2.055683103382623e-20
3.257954301209031e-19
5.670546312068491e-19
6.039186704032768e-19
2.8465022904689793e-19
1.721296986678673e-20
5.253860550156292e-19
2.165760171955452e-18
5.180980745760305e-18
1.1493429653992725e-17
2.7642135431784217e-17
6.971547935118756e-17
1.7494079579986908e-16
4.3085081175967967e-16
1.0453404553115228e-15
2.5086060912272667e-15
5.956651226789212e-15
1.3964984295296723e-14
3.2236901116225174e-14
7.31043783494409e-14
1.6260015038966737e-13
3.543716595928781e-13
7.563992874043383e-13
1.5813225061941784e-12
3.2400917649105768e-12
6.515376601386934e-12
1.2882144469439776e-11
2.5096845744454513e-11
4.825873814035592e-11
9.163896233155313e-11
1.7159234333988072e-10
3.15605974760845e-10
5.66628292270674e-10
9.84831796591027e-10
1.6408151753432728e-09
2.5910887317828215e-09
3.8270184507887765e-09
5.198772184905968e-09
6.344678362037271e-09
6.710162734687508e-09
5.817179505185225e-09
4.029828097941464e-09
4.1289033169472655e-09
1.4033862495351966e-08
5.099249743500081e-08
1.475242593232262e-07
3.593912832974752e-07
7.758748162991026e-07
1.532530149406669e-06
2.8261067259281203e-06
4.930099361176814e-06
8.207217803237197e-06
1.3112132121403757e-05
2.0175067988208836e-05
2.9955797698198603e-05
4.2960230787638365e-05
5.951957544988404e-05
7.964477093577503e-05
0.00010288402629389118
0.00012822384470838495
0.00015407761754910983
0.00017839560039729403
0.00019890460656261675
0.00021344971619193328
0.0002203740394870132
0.0002188492071238546
0.000209069711599607
0.00019225214074656755
0.0001704293833898835
0.00014608504684569291
0.00012171626973437265
9.942935392888781e-05
8.065737414491123e-05
6.604880405460984e-05
5.552624310157953e-05
4.847154140328491e-05
4.3970349694106314e-05
4.10490916437873e-05
3.8855737711646754e-05
3.6762615590764397e-05
3.4394520159301085e-05
3.160170346201468e-05
2.840295916020273e-05
2.492109058008207e-05
2.132567424812999e-05
1.7790138217868134e-05
1.4464222227860345e-05
1.1459605833885054e-05
8.845399197449149e-06
6.650347067469604e-06
4.869180459086082e-06
3.4711144297402685e-06
2.408922493499023e-06
1.6273791323643196e-06
1.0702296678128222e-06
6.852403847848697e-07
4.272607449132914e-07
2.5953248185282596e-07
1.5366409186698542e-07
8.874674664925012e-08
5.004449212982994e-08
2.7589763036634884e-08
1.4896214998090256e-08
7.894623665608629e-09
4.1192637272916125e-09
2.1244014198252336e-09
1.0882699530240894e-09
5.571328759988186e-10
2.870571983366463e-10
1.4999136939944042e-10
8.00649986526861e-11
4.392596108721865e-11
2.486073226974147e-11
1.4526030594057426e-11
8.743043477515258e-12
5.396166766375863e-12
3.395050266557102e-12
2.1638989149130865e-12
1.3893181905712438e-12
8.945959694361238e-13
5.761412616581498e-13
3.7080913701952693e-13
2.387629107287616e-13
1.5423573640339531e-13
1.0034629169627734e-13
6.60258782742809e-14
4.408141305880528e-14
2.990846207693178e-14
2.061000124435244e-14
1.439053660883621e-14
1.0146715034791162e-14
7.199236912366127e-15
5.123867963460516e-15
3.64891874338807e-15
2.594966792819882e-15
1.839981661071696e-15
1.2990036476706737e-15
9.119126409725712e-16
6.357051877302251e-16
4.393944646552953e-16
3.0054382915527123e-16
2.0287645417729805e-16
1.3460729394862256e-16
8.725431210550282e-17
5.476376390564209e-17
3.2846774298579644e-17
1.847135170339629e-17
9.482471253455326e-18
4.333511600448645e-18
1.909960006096361e-18
1.4184595987376143e-18
2.308925305344574e-18
4.2006354954505115e-18
6.7970865156379374e-18
9.796266995382221e-18
1.2825629759169726e-17
1.544453649729964e-17
1.7251952383031698e-17
1.8108493070308184e-17
1.843188330775584e-17
1.9465193759196348e-17
2.336862381862109e-17
3.297445185328486e-17
5.109643174844939e-17
7.941470862499853e-17
1.1716145834063207e-16
1.6008249722666739e-16
2.0039534083065198e-16
2.2864457464591674e-16
2.384241272709824e-16
2.3488471900540675e-16
2.478180156229608e-16
3.499909133598692e-16
6.813587043163968e-16
1.4797474188775682e-15
3.1182076486182063e-15
6.14770385478956e-15
1.1339811233077808e-14
1.9716063579777808e-14
3.2537468405297246e-14
5.1210762269710047e-14
7.705429517136017e-14
1.10874681574031e-13
1.5237473994286914e-13
1.9961615531851583e-13
2.4921879673990434e-13
2.9888351884976185e-13
3.5545373447752173e-13
4.544517156727481e-13
7.012653372784984e-13
1.3502763750387673e-12
2.94616207800391e-12
6.5601672976731886e-12
1.4159545485580885e-11
2.914178852990715e-11
5.702943285200087e-11
1.0622701886771378e-10
1.8854840725033916e-10
3.188897008837114e-10
5.129500250333976e-10
7.814209248289109e-10
1.1190149100383733e-09
1.4881198453025426e-09
1.8017715789842285e-09
1.9224570744835807e-09
1.717030388563544e-09
1.2499827458786916e-09
1.2632751114451279e-09
4.182856431136898e-09
1.6002308774935182e-08
4.9498594805003505e-08
1.2928621142126083e-07
2.9914152814946e-07
6.317389656146415e-07
1.2403516318300093e-06
2.2911449612815943e-06
4.013496392890714e-06
6.704519061231946e-06
1.0723032329443678e-05
1.646811529979716e-05
2.4338622943847022e-05
3.4672984550035184e-05
4.7673190578986676e-05
6.332248170650856e-05
8.131164087417627e-05
0.00010099226794888694
0.00012137525886132296
0.00014118771974796105
0.0001589916366982021
0.00017335419698372932
0.00018304558209405894
0.00018722911212378003
0.0001856045312979563
0.0001784704282862529
0.0001666864077082046
0.0001515369958509059
0.0001345222613621886
0.00011711845825555691
0.00010056002403555753
8.568895710020268e-05
7.289982158265292e-05
6.218325033197296e-05
5.324537608430548e-05
4.566288594066834e-05
3.9028631920550724e-05
3.305175275145482e-05
2.7595121256373146e-05
2.2654485421091385e-05
1.830041392128847e-05
1.4611103073006986e-05
1.1620466050764413e-05
9.294922470922133e-06
7.53931673118351e-06
6.222476407238379e-06
5.2088780737232405e-06
4.384637125108007e-06
3.671340328117893e-06
3.02714636969e-06
2.4387985426238214e-06
1.9097909433021678e-06
1.4492538292754464e-06
1.0642306401889014e-06
7.560102346268448e-07
5.197664402125034e-07
3.4615706738049474e-07
2.2359052149690358e-07
1.4027166576293497e-07
8.560681606558036e-08
5.0910022449416965e-08
2.9554793481954265e-08
1.677953205767359e-08
9.333753432029836e-09
5.095798198357076e-09
2.7346249113787835e-09
1.4440483522734014e-09
7.507172442304702e-10
3.841408442685432e-10
1.9330372850345177e-10
9.553072413536658e-11
4.63029721478111e-11
2.1995530885224697e-11
1.0249447071291922e-11
4.701592261015645e-12
2.138454802903691e-12
9.75163073099797e-13
4.5172122059356654e-13
2.148105521579764e-13
1.051120552021703e-13
5.2489617031077395e-14
2.6325599144420688e-14
1.3019830025970775e-14
6.2432641327740906e-15
2.860623560392312e-15
1.2357448097993865e-15
4.959851249051659e-16
1.8127182486256924e-16
5.827240655855734e-17
1.539428765712343e-17
2.898699256052332e-18
2.976967935756564e-19
1.2196985851713973e-19
1.7859524438364066e-18
1.7264653407638329e-18
1.2915324967302961e-18
6.031800244434527e-19
2.5927435569534667e-19
6.044863538651112e-19
1.2617851068209578e-18
1.8509739303440982e-18
3.2874598835686092e-18
8.633027252512018e-18
2.4250452259106314e-17
6.42117395511069e-17
1.6299387958926683e-16
4.0705529193963967e-16
1.010750087208655e-15
2.4942194851932447e-15
6.088703410900495e-15
1.4639822014019944e-14
3.458109170551741e-14
8.014930588855478e-14
1.8216556711292479e-13
4.058801138771039e-13
8.864380447033539e-13
1.898035972869729e-12
3.986565983983821e-12
8.21987035620457e-12
1.6650040594869638e-11
3.314033435263178e-11
6.476964171055309e-11
1.2402700847613433e-10
2.317922260232819e-10
4.2038775143694573e-10
7.344496787343942e-10
1.2249249133189647e-09
1.9290109878740244e-09
2.8290173922835487e-09
3.791060369817548e-09
4.506838383217916e-09
4.5032989997789286e-09
3.343644476628698e-09
1.205952070030393e-09
7.209254111617119e-11
5.774391161956094e-09
3.113963139044791e-08
1.0048237944952831e-07
2.5578869728645016e-07
5.651073878750016e-07
1.133811140888001e-06
2.11920612738457e-06
3.748023555510006e-06
6.334246553951975e-06
1.0291513196873424e-05
1.613070037874378e-05
2.4430792723037066e-05
3.5771932210269895e-05
5.062562009282013e-05
6.920907880341202e-05
9.132701172077474e-05
0.00011623976117148219
0.00014260543083230787
0.000168538397571663
0.00019180466102328145
0.00021013862058383124
0.0002216258023680006
0.00022506573893151896
0.00022022173526850287
0.00020788599749756092
0.00018973533285791052
0.0001680099918531091
0.0001450968084477873
0.00012312087280358237
0.00010364034786202904
8.750180734682762e-05
7.486340861507032e-05
6.534823224599246e-05
5.826398317731578e-05
5.282287130006234e-05
4.831257056719376e-05
4.4195610540802214e-05
4.0139577656077075e-05
3.599675227963154e-05
3.1757141046419235e-05
2.7495544250267297e-05
2.332570755423042e-05
1.936688699261222e-05
1.5722772328016207e-05
1.2470221682438285e-05
9.654920269550064e-06
7.291731055137559e-06
5.368244315729117e-06
3.850448742900231e-06
2.6895531783874225e-06
1.8289897660674079e-06
1.2107125213127497e-06
7.801377642011875e-07
4.894088997724752e-07
2.9900922419849234e-07
1.7800458032495238e-07
1.0332994437522147e-07
5.854598235477743e-08
3.2420004226977615e-08
1.7576163490782722e-08
9.349980793713414e-09
4.894890142612048e-09
2.5312912657863067e-09
1.2990729280316211e-09
6.653777592208786e-10
3.4236113391703543e-10
1.7822773741605271e-10
9.454605796953337e-11
5.143419028133941e-11
2.8829021431566362e-11
1.6685342809319646e-11
9.96524047803731e-12
6.1213877407994174e-12
3.8471477363966405e-12
2.458545479676153e-12
1.5880162322662045e-12
1.0315298510668157e-12
6.714653504129969e-13
4.372104029453583e-13
2.847207699615529e-13
1.8567671398464384e-13
1.2152414065185625e-13
8.002652113883026e-14
5.314108941199089e-14
3.563266708066965e-14
2.413403875254928e-14
1.6501468023051216e-14