# vtk DataFile Version 4.1 
COMMENT
ASCII
DATASET STRUCTURED_POINTS 
DIMENSIONS 300 300 1 
ORIGIN 0 0 0
SPACING 0.020943951023931952 0.020943951023931952 0 
POINT_DATA 90000
SCALARS U double 1
LOOKUP_TABLE default
6.750647757532074e-19
8.561034169928573e-19
1.0137017728287369e-18
1.9666588426703627e-18
4.19880571152897e-18
7.72859506306998e-18
1.2905104300870212e-17
2.139199806133629e-17
3.826429577076252e-17
8.027495205531026e-17
2.0334970770653532e-16
5.819323371272129e-16
1.7196508752594476e-15
4.97050080510198e-15
1.374268066494149e-14
3.610024541403735e-14
9.003194616474951e-14
2.1345647051460204e-13
4.820538457139275e-13
1.0392055065912338e-12
2.1439079983187675e-12
4.245860093505096e-12
8.10636647084465e-12
1.500948288103663e-11
2.7169144477981847e-11
4.856440663702477e-11
8.666417075841165e-11
1.558779614814386e-10
2.8414847457727175e-10
5.250072895703327e-10
9.789557138515238e-10
1.8308983544894808e-09
3.4158138226931223e-09
6.3347299859880204e-09
1.1659262386431637e-08
2.1286045164874507e-08
3.8529311506433115e-08
6.906135512378431e-08
1.223094658227144e-07
2.1337145137868808e-07
3.6540093780325414e-07
6.122399755753568e-07
1.000882952471979e-06
1.593237060462649e-06
2.4667291466851604e-06
3.7137001795363354e-06
5.440214601351976e-06
7.765684722771119e-06
1.0825161345865381e-05
1.4775780426767737e-05
1.9807342988277047e-05
2.615441343369106e-05
3.410427870666016e-05
4.3992726482677484e-05
5.617915200036003e-05
7.099498910805356e-05
8.866517784105512e-05
0.00010921064833390099
0.00013234890116536001
0.00015741712049264787
0.00018334490418803212
0.0002086991033295011
0.00023181043815638793
0.00025097209744134495
0.0002646790330013084
0.00027185991317537576
0.00027204848834074246
0.0002654513561358775
0.00025289351443186686
0.00023565480578026924
0.00021523908518388018
0.00019313387236886265
0.00017061610128118958
0.00014864081650152428
0.00012782178562007124
0.00010848625401987205
9.076923248396686e-05
7.470981554745057e-05
6.032147497086439e-05
4.762433562817193e-05
3.6643210871972846e-05
2.7385399691357563e-05
1.9814919737485408e-05
1.3836147212730956e-05
9.292846704938408e-06
5.981638793036393e-06
3.6743768226537217e-06
2.1424583785230503e-06
1.1772451335233932e-06
6.032911357385549e-07
2.837439207999425e-07
1.1924677949294522e-07
4.2623710353548434e-08
1.1684497418002308e-08
1.977990806958701e-09
6.049345763516902e-10
1.542316001133529e-09
2.4634168156594815e-09
2.7852474710949172e-09
2.595458350260953e-09
2.138712488816751e-09
1.6182415702431367e-09
1.1508933453184768e-09
7.821093819314924e-10
5.14407036465665e-10
3.309899879169054e-10
2.1029921978460623e-10
1.3301297408689275e-10
8.432575603028674e-11
5.387782573276035e-11
3.482821004558038e-11
2.2825773054416555e-11
1.5167563573396282e-11
1.0197966721717603e-11
6.910469660213632e-12
4.694441824757816e-12
3.1777589668778027e-12
2.1304377214616774e-12
1.4065328542519704e-12
9.09830874057963e-13
5.741185318837152e-13
3.521121699235568e-13
2.0929583472028113e-13
1.2037607725313237e-13
6.704449377405183e-14
3.637132135966682e-14
1.9526609567243786e-14
1.0718958260214943e-14
6.323173689355702e-15
4.189440442674235e-15
3.1225498274032847e-15
2.5100426682888092e-15
2.071488474681705e-15
1.6996043658634472e-15
1.3664954050908232e-15
1.0730947572294043e-15
8.252689976369806e-16
6.25001669941167e-16
4.691016004842145e-16
3.5090029157634963e-16
2.6250200454088247e-16
1.965050759233951e-16
1.469084914888416e-16
1.0932012424432659e-16
8.073007007144886e-17
5.911130235931354e-17
4.303811491371562e-17
3.1422041140299964e-17
2.338530732197198e-17
1.823789431001567e-17
1.54999336879626e-17
1.4913689572884507e-17
1.6411514107380173e-17
2.0037645367592027e-17
2.58510039666649e-17
3.3852960028773986e-17
4.3982382420437145e-17
5.62009304546897e-17
7.066290611139043e-17
8.794045398415429e-17
1.0927276138031547e-16
1.3683942812257635e-16
1.7412530394261744e-16
2.2653420549674294e-16
3.024960512693323e-16
4.153682420159245e-16
5.864542234781447e-16
8.495141526069006e-16
1.257409076102461e-15
1.8923502743012436e-15
2.8831322568759672e-15
4.436291120828328e-15
6.893751320714472e-15
1.0837004393421032e-14
1.72658385409187e-14
2.7885019201674558e-14
4.553002660152721e-14
7.474632679821541e-14
1.2249888217808806e-13
1.989251993815234e-13
3.1795680301592254e-13
4.975281943419191e-13
7.589830760491073e-13
1.1251932432772263e-12
1.6168530585704618e-12
2.2464701084419782e-12
3.009958261579552e-12
3.8770927956533064e-12
4.786062341208474e-12
5.65778805023444e-12
6.470769521600291e-12
7.493287199198198e-12
9.887430112823171e-12
1.713237500381499e-11
3.815019297314608e-11
9.378532089384318e-11
2.295523248190797e-10
5.394796927040994e-10
1.2084703631013166e-09
2.5835607539565467e-09
5.286804364981067e-09
1.0382197699322258e-08
1.9602798550418267e-08
3.562771507521867e-08
6.236823029951982e-08
1.0517782951785586e-07
1.7085060674543891e-07
2.672387730015343e-07
4.0234289897206546e-07
5.828634376622726e-07
8.125052920418903e-07
1.0908263939086194e-06
1.4140726195229705e-06
1.7800853781517093e-06
2.1997076796076317e-06
2.716745362660849e-06
3.4370604065405754e-06
4.564570448426711e-06
6.438004384926067e-06
9.558005325250463e-06
1.4590953709618702e-05
2.2335404858818625e-05
3.364078630287648e-05
4.9276576243316045e-05
6.976270278813987e-05
9.51858167324405e-05
0.00012503760209430471
0.00015811635646831822
0.00019252872081448424
0.00022581390825116135
0.00025519008387404906
0.00027789617272271766
0.0002915782610141241
0.0002946538712960055
0.00028658431259603634
0.00026799711704476886
0.00024062619917330558
0.00020707241288194216
0.00017042438174183486
0.00013381002719768193
9.996487316619325e-05
7.089886751623509e-05
4.771931920910916e-05
3.0629722060055906e-05
1.908326737991185e-05
1.2037331521392681e-05
8.239789729683573e-06
6.4823686509872275e-06
5.776602482757335e-06
5.435922292300892e-06
5.073529723808784e-06
4.542896931583952e-06
3.853251128207031e-06
3.087818138003022e-06
2.3421967667384883e-06
1.6888261326179454e-06
1.1646791422341186e-06
7.746480596008031e-07
5.023310015733718e-07
3.217409277115875e-07
2.0625357330602988e-07
1.3365565295825179e-07
8.781881375129322e-08
5.822514885133158e-08
3.855871184291381e-08
2.5209739793309143e-08
1.6109284598479354e-08
9.988195125461704e-09
5.9818726570520565e-09
3.4524302512125962e-09
1.918948672505777e-09
1.0277826237582374e-09
5.312852146423017e-10
2.657374573977231e-10
1.2907655263135187e-10
6.118090099935237e-11
2.8474500273576762e-11
1.3111028938274135e-11
6.022942064293832e-12
2.783538245913432e-12
1.30323862732772e-12
6.207795819739455e-13
3.010780692859353e-13
1.4828657417534688e-13
7.376914162185401e-14
3.68053456168329e-14
1.827158866106319e-14
8.954005275655281e-15
4.299504114860837e-15
2.0100973215677776e-15
9.102628471780475e-16
3.9726824872051515e-16
1.6589240799539787e-16
6.573379420352023e-17
2.4891665879973327e-17
9.447839694666766e-18
3.663612846867846e-18
1.1429074858025488e-18
1.4126683957984793e-19
2.2581157065890766e-19
8.647680666032251e-19
3.911440064892691e-19
1.1094906803049282e-19
6.44545065071807e-19
1.9353701050937574e-18
3.661489772140532e-18
6.2288511037774555e-18
1.1380511922280954e-17
2.315099125158846e-17
5.2079696473002115e-17
1.2880903513929205e-16
3.4219435911534347e-16
9.398390894235411e-16
2.57787225094455e-15
6.902900920353868e-15
1.7823282035801082e-14
4.4110303433742014e-14
1.0437088492496196e-13
2.3590436080830375e-13
5.093841994186929e-13
1.051653405836628e-12
2.079786734526719e-12
3.95356050306652e-12
7.267710541473897e-12
1.3044970483636325e-11
2.318228510551557e-11
4.1484967971593397e-11
7.594866848346777e-11
1.4348613524126148e-10
2.791594599376818e-10
5.534028686024347e-10
1.1031903098847412e-09
2.187494586685939e-09
4.285000517809312e-09
8.264276191548758e-09
1.567404302732317e-08
2.9221834144962504e-08
5.3526379293419794e-08
9.622906651564475e-08
1.6951365463533682e-07
2.919929145945591e-07
4.907736813971763e-07
8.033415767229336e-07
1.2787982386947732e-06
1.9780644064099796e-06
2.9730507090034527e-06
4.345514131408004e-06
6.187184165282254e-06
8.603345081959319e-06
1.172183825533408e-05
1.5707924852467305e-05
2.0782543883452746e-05
2.7237772373546407e-05
3.5439964004481774e-05
4.5809715257071596e-05
5.8769947337888134e-05
7.465970572258176e-05
9.362121843678162e-05
0.00011547929961550702
0.00013964203872813142
0.00016505597822831495
0.00019024430532938247
0.00021344161783142082
0.00023281549380048953
0.0002467390115929697
0.0002540577642705903
0.000254288022015105
0.00024769432384398306
0.0002352235717729229
0.0002183106330667895
0.00019860525110328945
0.00017768980652419972
0.00015685545656784193
0.00013698173992230886
0.00011853061974622071
0.00010163257598927417
8.622074917894574e-05
7.216475123979408e-05
5.936714166623941e-05
4.7805940514819665e-05
3.752728280614559e-05
2.860650270898937e-05
2.11005490386562e-05
1.5010715683805776e-05
1.0265898831290497e-05
6.72723919700924e-06
4.208252340666103e-06
2.501706749497084e-06
1.4051752262903665e-06
7.399608565421573e-07
3.614107841735847e-07
1.6131623606811134e-07
6.462619909633834e-08
2.309938409135798e-08
8.13069451949604e-09
4.2408672777204085e-09
3.954739532031329e-09
4.210294078961137e-09
4.095596017695044e-09
3.5727238068208983e-09
2.8477486250564077e-09
2.1143600059572296e-09
1.4849988983034912e-09
9.988374162548564e-10
6.500697150982565e-10
4.1310156730601824e-10
2.584600070112484e-10
1.6046207491309873e-10
9.959587246617183e-11
6.223742817584327e-11
3.9399365689544805e-11
2.5383852292400318e-11
1.667961207182719e-11
1.1167245507911995e-11
7.586924753409096e-12
5.19733696004264e-12
3.5634522781908414e-12
2.4275057133567466e-12
1.6324811333106596e-12
1.0780988891531439e-12
6.964250236603591e-13
4.388759870976073e-13
2.6948041020551464e-13
1.613269686101347e-13
9.448973001924967e-14
5.4577105734862275e-14
3.1543622463445055e-14
1.8653835533017248e-14
1.1589676013103153e-14
7.716122454564288e-15
5.510882644374691e-15
4.1472995789757835e-15
3.20732507892989e-15
2.4960424360645948e-15
1.9297385149582144e-15
1.4735722148563918e-15
1.1103093897235861e-15
8.26942812117699e-16
6.105345773965597e-16
4.480560895391181e-16
3.2739936299843084e-16
2.382694676289146e-16
1.7255576424132267e-16
1.2422053557132181e-16
8.89044718100971e-17
6.345486085711416e-17
4.552038583409067e-17
3.3278881385455115e-17
2.529900917141714e-17
2.049500157230283e-17
1.8117439876053575e-17
1.7729456131848487e-17
1.9140546401735286e-17
2.2300604255105002e-17
2.7184536202167578e-17
3.371321445403795e-17
4.175352444970428e-17
5.12193285572544e-17
6.226437888456897e-17
7.553171421854284e-17
9.241761935577602e-17
1.153327196283606e-16
1.4799772051880624e-16
1.9588086417933314e-16
2.6693974014304114e-16
3.7284330981448635e-16
5.308198268695971e-16
7.662700110698391e-16
1.1164861998972964e-15
1.6365660023276187e-15
2.4103953172257643e-15
3.572963579772086e-15
5.3556914346362095e-15
8.173833058418644e-15
1.2783320821386067e-14
2.0541131807910882e-14
3.38040986565048e-14
5.64902975292091e-14
9.47986265610884e-14
1.5803167010286428e-13
2.5939482836854424e-13
4.1655876284132155e-13
6.516895390366214e-13
9.906001533767485e-13
1.4607082469366401e-12
2.0877030471152305e-12
2.8914868611538076e-12
3.883697560351218e-12
5.073427568201045e-12
6.4979090575839465e-12
8.317737550003533e-12
1.10650677407918e-11
1.6233283963418785e-11
2.7592559450160102e-11
5.398154022130433e-11
1.1497349961332262e-10
2.518953101239407e-10
5.483476251506312e-10
1.166718171218218e-09
2.4100377592097907e-09
4.821232980472819e-09
9.332883754523047e-09
1.7477446061630645e-08
3.165711727455658e-08
5.545081364842778e-08
9.390229244180522e-08
1.5369379748974196e-07
2.430802654099688e-07
3.7147125970776135e-07
5.486462070646408e-07
7.838215528091185e-07
1.0851852230433745e-06
1.4610490343030695e-06
1.9243247986401467e-06
2.5023679752168632e-06
3.2540138536858865e-06
4.294491683186603e-06
5.826605227791312e-06
8.173200329068402e-06
1.1802083323791251e-05
1.733133664558372e-05
2.5501907243313053e-05
3.710688872747121e-05
5.287391229191592e-05
7.330811376480545e-05
9.851632357677683e-05
0.00012804514059506578
0.00016077249117783985
0.00019489077156021744
0.00022800809979126822
0.00025737351177742223
0.0002802057747472549
0.0002940795501043858
0.0002973033606993937
0.0002892168291418225
0.0002703432556146047
0.0002423576638487992
0.00020786594229686562
0.00017003016802191734
0.00013210914977266873
9.700256869627185e-05
6.688588956511494e-05
4.300094184202813e-05
2.5629371911845435e-05
1.4233472308558892e-05
7.713148133925413e-06
4.708451121706772e-06
3.878042366852913e-06
4.102379753425537e-06
4.588539132375942e-06
4.881736000127763e-06
4.808895472729536e-06
4.388155629624191e-06
3.7356075508950427e-06
2.9907240119618372e-06
2.2697763609403553e-06
1.6462363769792392e-06
1.150949330461705e-06
7.829856545277922e-07
5.233867984730659e-07
3.4685559015258516e-07
2.293496630445497e-07
1.5164993815164582e-07
1.000448567167495e-07
6.54775335401295e-08
4.221093934855206e-08
2.661889739399335e-08
1.6328072884196166e-08
9.702902421525329e-09
5.571781958242406e-09
3.0880509092996357e-09
1.651701254837275e-09
8.533885349912601e-10
4.2679916404790945e-10
2.073149527292291e-10
9.830087411264484e-11
4.5820714840158076e-11
2.118933162479292e-11
9.82628762144723e-12
4.619450969272046e-12
2.2205027214396273e-12
1.095766550815983e-12
5.542879713797259e-13
2.8566085456698554e-13
1.486964370207082e-13
7.745623510717656e-14
4.002660771449973e-14
2.036534811764412e-14
1.0137755827063516e-14
4.912287937153272e-15
2.307517363016485e-15
1.0471667516647456e-15
4.577489284379869e-16
1.926814704767446e-16
7.863488587742924e-17
3.1464913854254224e-17
1.2196311158427025e-17
4.359364306974054e-18
1.6089179364371337e-18
1.0496102228190959e-18
1.974643368708469e-18
6.09115764445678e-19
1.335432734198523e-19
5.768112703852301e-19
1.2939828110906484e-18
1.80426245019536e-18
2.6075629764001836e-18
5.196517438219033e-18
1.2173153577513611e-17
2.9343503553124826e-17
7.263644130971384e-17
1.8685179937719795e-16
4.943433146323299e-16
1.3156245788998962e-15
3.45193276461948e-15
8.808604010257285e-15
2.1682887308414792e-14
5.1239068582263606e-14
1.15899568443299e-13
2.504658735543752e-13
5.165845228907645e-13
1.0168093921797227e-12
1.913316640757971e-12
3.4588197655640437e-12
6.0703263626157556e-12
1.0537424602940042e-11
1.8591172941485734e-11
3.431918359100362e-11
6.736941124792505e-11
1.3964854982493809e-10
2.984823034845311e-10
6.413236678970066e-10
1.3607019742565885e-09
2.8241329197463137e-09
5.713188227788205e-09
1.1259311763121984e-08
2.1629831993825416e-08
4.0530704641917334e-08
7.409190997858329e-08
1.320706072782494e-07
2.29328952028738e-07
3.87412869113729e-07
6.359020679374752e-07
1.0130977627819264e-06
1.5656899260464606e-06
2.34743495693e-06
3.417629235462078e-06
4.841140619198447e-06
6.6925490746116245e-06
9.066926215857587e-06
1.2098335873417347e-05
1.5984005318264964e-05
2.100773671280346e-05
2.7551772644425752e-05
3.608389781748245e-05
4.7108010255488445e-05
6.107295961414802e-05
7.824587211039061e-05
9.857028303054954e-05
0.00012154220331205454
0.000146143814857331
0.00017087041777756522
0.000193869553419768
0.00021318394108441822
0.00022705858144884226
0.00023424695345080086
0.0002342416631427536
0.00022736726161732784
0.00021470607149741403
0.00019787261166510366
0.00017869415724817568
0.00015887973601491236
0.00013975890445148717
0.00012214584102692846
0.00010634354593544284
9.226199568135127e-05
7.95965402828749e-05
6.800595281404486e-05
5.7242349366949004e-05
4.720996471084869e-05
3.79560374171891e-05
2.961600778627151e-05
2.2342542574629045e-05
1.6244259042252508e-05
1.1349609085873344e-05
7.599454580124063e-06
4.862598909128488e-06
2.9639351301892783e-06
1.714768583384932e-06
9.377386168288805e-07
4.826894076140858e-07
2.3329828663080344e-07
1.0646553580739193e-07
4.7298946121409754e-08
2.2327156089671334e-08
1.2836498263701323e-08
9.373118735357849e-09
7.751153517731308e-09
6.460376682945797e-09
5.15911723686601e-09
3.901001592522379e-09
2.7991736767391604e-09
1.9180605052173053e-09
1.2640013218058327e-09
8.067468925346308e-10
5.02152068709721e-10
3.069666618093963e-10
1.8566936704789292e-10
1.1202966844231515e-10
6.803983320232007e-11
4.198005889788772e-11
2.6527865622133133e-11
1.7254333330573144e-11
1.1551980542076998e-11
7.920679084061244e-12
5.51345738954486e-12
3.857428895608548e-12
2.6875223229232273e-12
1.850658075263071e-12
1.2527141388994143e-12
8.306220876613485e-13
5.385447036153861e-13
3.4143122663031467e-13
2.1208028134104576e-13
1.2964398484228262e-13
7.859738384204509e-14
4.780373010129112e-14
2.960066627292037e-14
1.8943497206644535e-14
1.2658855998898404e-14
8.84162937123028e-15
6.400809376598686e-15
4.7393991150805615e-15
3.542833331411458e-15
2.647966741320613e-15
1.9674570052591163e-15
1.4495021302740617e-15
1.058426423639543e-15
7.664675574159908e-16
5.508779641537285e-16
3.9309288917482296e-16
2.7840629889284057e-16
1.9557012236034758e-16
1.3622022826261696e-16
9.42223197837794e-17
6.506085387984526e-17
4.535506705777757e-17
3.25306872876518e-17
2.462940000916318e-17
2.0209967930664525e-17
1.828643111441903e-17
1.8257808749801836e-17
1.980570852324368e-17
2.276441382194258e-17
2.6993576873057364e-17
3.229766817069198e-17
3.8432837381366947e-17
4.5220853287494535e-17
5.275871791991891e-17
6.168467224027573e-17
7.34512050180977e-17
9.057264013373749e-17
1.16856540824362e-16
1.5767737810633117e-16
2.2037943906841041e-16
3.1487840678894e-16
4.54470920529133e-16
6.568280376836522e-16
9.45318117528048e-16
1.351491395984218e-15
1.9212121378030933e-15
2.730063034102894e-15
3.918691721196798e-15
5.765757394593069e-15
8.824319850030539e-15
1.4154936926572116e-14
2.3691960009438082e-14
4.077379261174676e-14
7.084809601363428e-14
1.223255701911453e-13
2.0750196463367694e-13
3.434062494087169e-13
5.523838994011283e-13
8.622253350785748e-13
1.3057667847817696e-12
1.920251102983188e-12
2.747607322123564e-12
3.838779111441945e-12
5.269588449342486e-12
7.185077621305677e-12
9.909368872435985e-12
1.4199702958805157e-11
2.180702216079559e-11
3.66682477596097e-11
6.735989252394847e-11
1.319865627811646e-10
2.675972402146089e-10
5.476746216205861e-10
1.1133494091777307e-09
2.226712045005475e-09
4.357520791484748e-09
8.31669803608183e-09
1.5449382587452386e-08
2.7894300069183525e-08
4.89020730972625e-08
8.318168656778062e-08
1.372150735124556e-07
2.1945645399483536e-07
3.4033899248489834e-07
5.120815177824938e-07
7.484622599462965e-07
1.0650323696407529e-06
1.4806669822244508e-06
2.021810224992575e-06
2.7310791747592863e-06
3.681772614015355e-06
4.9989667720145555e-06
6.886033601834702e-06
9.652592437279705e-06
1.3736514542715161e-05
1.9709540282886285e-05
2.8254634993118343e-05
4.010478153013924e-05
5.593844750719181e-05
7.623646355929481e-05
0.00010111713136666364
0.0001301783025776177
0.0001623833258909223
0.0001960286447390914
0.00022882220591762315
0.00025808373280704463
0.0002810530560418951
0.0002952662097106962
0.00029893736868150637
0.00029127417308258706
0.0002726588624254409
0.0002446488312931847
0.00020978446773814658
0.00017123228571316477
0.0001323277790020887
9.610544181205888e-05
6.490622023635841e-05
4.0133759942111616e-05
2.2194913184665548e-05
1.0616897536235622e-05
4.2952046077189364e-06
1.8029970674470727e-06
1.6893786987555831e-06
2.7091699382130765e-06
3.953804820092022e-06
4.882249818401379e-06
5.273898767593866e-06
5.137233365345646e-06
4.608139044808625e-06
3.863255208395445e-06
3.0614721400608208e-06
2.315224108345453e-06
1.6854647509623559e-06
1.1909803085365647e-06
8.231939813687925e-07
5.602289227947173e-07
3.771166526849621e-07
2.515592296922261e-07
1.6612613341388062e-07
1.0825877566042734e-07
6.930397772571997e-08
4.337634169959905e-08
2.6429017837413776e-08
1.5622228028232067e-08
8.936211177311376e-09
4.93890655237003e-09
2.635604131164102e-09
1.3583357181897051e-09
6.770052688951746e-10
3.272274641489625e-10
1.541307845441988e-10
7.129403692809582e-11
3.274987126979347e-11
1.515958153391875e-11
7.184266402210248e-12
3.5306506287243852e-12
1.8080436632489544e-12
9.60107999150301e-13
5.224440643319459e-13
2.8726368220908783e-13
1.5760082325138484e-13
8.542219643295924e-14
4.5410632929456396e-14
2.35536918683843e-14
1.1876343549559651e-14
5.806802718101051e-15
2.7488618842753057e-15
1.2594858671978523e-15
5.595548175251499e-16
2.4215242530659504e-16
1.0260297622748317e-16
4.2665613786324215e-17
1.766580356839251e-17
7.823824920778679e-18
3.988151242109637e-18
6.65905742862702e-18
2.8793022351342897e-18
1.5454682229520046e-18
1.432263681250298e-18
1.3138438795857664e-18
8.169044119543025e-19
6.626736503991871e-19
2.0119190462647292e-18
6.100510011579991e-18
1.5425616994129533e-17
3.7614692009045164e-17
9.495772401283153e-17
2.480447608078817e-16
6.539114309827309e-16
1.703667741643053e-15
4.330145808227805e-15
1.0650147453354376e-14
2.520616353657662e-14
5.716138465140959e-14
1.2376583836809918e-13
2.550539220795242e-13
4.989324163721748e-13
9.251081706296698e-13
1.628296975532972e-12
2.7432167723835932e-12
4.522094796943512e-12
7.619144655981226e-12
1.3922246683118052e-11
2.863790002465376e-11
6.497139744546157e-11
1.538109690756077e-10
3.62601654942326e-10
8.305543861425218e-10
1.8321756642615304e-09
3.888606692981507e-09
7.956796067288331e-09
1.5738986310188592e-08
3.016510250888546e-08
5.609912170269915e-08
1.0129259933592936e-07
1.7753764470663098e-07
3.0185059836235245e-07
4.973682284099148e-07
7.935322364832485e-07
1.2252025847847593e-06
1.8307248138816872e-06
2.64976498216194e-06
3.72281274626745e-06
5.095243933161087e-06
6.829059268993231e-06
9.024130186009034e-06
1.1847537759541297e-05
1.556465938030923e-05
2.0560294220776736e-05
2.73344522990882e-05
3.6457901259458536e-05
4.8478988316879994e-05
6.378581777865277e-05
8.24444089686328e-05
0.00010404945614874178
0.00012763376885076638
0.00015167976066522563
0.00017425856598797694
0.00019329137016088982
0.0002068907428747926
0.00021370869847843764
0.00021320489752656982
0.0002057605646557782
0.00019260071589870297
0.00017553910961141928
0.0001566103218434733
0.00013768436199903053
0.00012016048530995147
0.00010480834460191687
9.177719060542765e-05
8.074458666178324e-05
7.114147141054529e-05
6.237991406330329e-05
5.4023386094094556e-05
4.5868344406452435e-05
3.7938082103425e-05
3.0414224764976204e-05
2.354203545902419e-05
1.7542928173242355e-05
1.2555827417339462e-05
8.614479101036797e-06
5.655790843271951e-06
3.5475764593422297e-06
2.1229024455422187e-06
1.2109896536622995e-06
6.590794367011932e-07
3.4391917594916685e-07
1.7445332999319948e-07
8.865174914291614e-08
4.7468897708328586e-08
2.8244314400048773e-08
1.893511919813038e-08
1.3757606548019593e-08
1.0259746834311056e-08
7.559823333941968e-09
5.402922434975241e-09
3.7217313665764643e-09
2.470259851697832e-09
1.5837741477303298e-09
9.84512700297786e-10
5.960667194013056e-10
3.533941763095921e-10
2.0655552509035137e-10
1.2006791255935542e-10
7.020422730148918e-11
4.1859511714876085e-11
2.58073324954267e-11
1.6613384013012734e-11
1.1182887892656793e-11
7.809556247561456e-12
5.581204030009462e-12
4.022457734519128e-12
2.8879216737298487e-12
2.0473948612469795e-12
1.4254561556767506e-12
9.71844449250442e-13
6.483143377564562e-13
4.23594230357753e-13
2.7182090997881354e-13
1.721121582124604e-13
1.0826253184270546e-13
6.824852047213126e-14
4.354867014170403e-14
2.8388757768248228e-14
1.902177083041965e-14
1.3113673327847248e-14
9.263680207752906e-15
6.656482960370972e-15
4.826381765974082e-15
3.5070313847439676e-15
2.5414318319757692e-15
1.831249356628138e-15
1.3100021078750053e-15
9.29653724675914e-16
6.541168920445055e-16
4.559756899021169e-16
3.14544112044159e-16
2.1443290870333282e-16
1.4434120809369529e-16
9.602334797844146e-17
6.34495554089778e-17
4.217401016904191e-17
2.8896891105114223e-17
2.1182208383736664e-17
1.72792297039858e-17
1.5994029850432558e-17
1.656851734210906e-17
1.8544861188953698e-17
2.1618792044940548e-17
2.5508550408744558e-17
2.98792298633524e-17
3.43590949395336e-17
3.866472668268315e-17
4.282204311410902e-17
4.7442298929098104e-17
5.399902429313924e-17
6.506114082434385e-17
8.44657395504786e-17
1.174445396992082e-16
1.7072558708063424e-16
2.5259622305378676e-16
3.72843549190862e-16
5.424535066094967e-16
7.731113509175733e-16
1.0771833966873515e-15
1.4703651543505594e-15
1.9820101772409345e-15
2.6827004658562958e-15
3.7449927127815374e-15
5.560984927881727e-15
8.947950094359732e-15
1.5478126732851305e-14
2.7967087717635753e-14
5.1142856597298884e-14
9.249247421122551e-14
1.632457099380769e-13
2.794168986795883e-13
4.628082717163976e-13
7.419240600810863e-13
1.1529283588863047e-12
1.7412348509604118e-12
2.5652990652991524e-12
3.706210762907975e-12
5.2908209273041625e-12
7.544575631303825e-12
1.0907401280644172e-11
1.6280649631547716e-11
2.554200597902585e-11
4.2599014084499155e-11
7.550335393253866e-11
1.406018659041309e-10
2.7047893760689707e-10
5.287006879573993e-10
1.0362487235385202e-09
2.0170770388070433e-09
3.873234524893958e-09
7.302802300769164e-09
1.347518622319789e-08
2.427611302062484e-08
4.262682283347267e-08
7.286723647308044e-08
1.211732513156535e-07
1.9596180381359629e-07
3.0824076606353667e-07
4.719103841651635e-07
7.041501224214256e-07
1.0262535152309453e-06
1.4655994960211983e-06
2.0598116164555546e-06
2.864417735213656e-06
3.965261481840201e-06
5.496266789422113e-06
7.661694219447922e-06
1.0759705743423081e-05
1.5201149462440035e-05
2.1514681884619354e-05
3.0327741462833483e-05
4.231371561738352e-05
5.8099906084808956e-05
7.813885581172063e-05
0.00010255635568735621
0.00013100080494150054
0.00016252736445441853
0.0001955530938355582
0.0002279134036448197
0.00025703495969052584
0.0002802174661143446
0.00029499089162841283
0.0002994918201618598
0.00029278916410804015
0.00027509048826737745
0.0002477775623904827
0.00021325124985296256
0.00017460505957028944
0.00013518434141358946
9.811433712579079e-05
6.588758708924777e-05
4.008688482397925e-05
2.1287495454781505e-05
9.140490150824883e-06
2.5993012463429093e-06
2.2453600797077768e-07
4.93949608358225e-07
2.0554119589370097e-06
3.88518300774739e-06
5.343031961122927e-06
6.140889008182175e-06
6.256822993450816e-06
5.8294338101084525e-06
5.061366664847141e-06
4.1490329914098245e-06
3.243501554444483e-06
2.438368279778754e-06
1.7757055458762665e-06
1.2605991756592253e-06
8.768809971402505e-07
5.997816699070763e-07
4.040580289289993e-07
2.680218572161132e-07
1.747260023854819e-07
1.1161909357671293e-07
6.963942688250616e-08
4.2293356797137923e-08
2.4929381624013345e-08
1.4227141309045964e-08
7.846546669674709e-09
4.176729474259869e-09
2.1444728763995923e-09
1.0622885422472464e-09
5.085117672844407e-10
2.3613952922901587e-10
1.0718338711062612e-10
4.818562412103202e-11
2.189600330296918e-11
1.0317799914345256e-11
5.157184182561741e-12
2.7556354637183675e-12
1.5558590352411037e-12
9.070832948155698e-13
5.336374529732482e-13
3.1140755970218874e-13
1.7830984471832243e-13
9.95465691635454e-14
5.3993759304622523e-14
2.8400445227037914e-14
1.4476207117449193e-14
7.151944816050842e-15
3.4292305741368002e-15
1.6001328603432155e-15
7.297425846166764e-16
3.2710582153854547e-16
1.4529396961392155e-16
6.498655632919843e-17
3.000504993631165e-17
1.4330704149210922e-17
2.43310745811656e-17
1.196344371993487e-17
6.501917951095212e-18
3.919765517253521e-18
2.0416793084051034e-18
5.138315000983625e-19
2.0869653552831395e-20
1.0535037326808494e-18
3.5338582036880926e-18
7.932354061507972e-18
1.7809780574576087e-17
4.458418956304546e-17
1.184308139580555e-16
3.158411761300026e-16
8.271630823409644e-16
2.1102585776799908e-15
5.2143163596635695e-15
1.2411493895692914e-14
2.8317445650218786e-14
6.162502533519233e-14
1.272409504259141e-13
2.4780044160478833e-13
4.523402954821448e-13
7.696978989125259e-13
1.2196784979218503e-12
1.82775250014152e-12
2.751974681910638e-12
4.752917141856964e-12
1.0517917851068683e-11
2.785662155404345e-11
7.664892405455574e-11
2.0286996529704187e-10
5.054079946426824e-10
1.185281593885026e-09
2.6328976071436723e-09
5.5775171136431046e-09
1.1333261344421298e-08
2.218420677349919e-08
4.194920066864512e-08
7.674125799197149e-08
1.358702727300071e-07
2.32722030830068e-07
3.852982359467726e-07
6.159880632581536e-07
9.501889426958858e-07
1.413765071021696e-06
2.030141066574296e-06
2.819010654469454e-06
3.7998276190838283e-06
5.003741876261195e-06
6.496591626482256e-06
8.412329506355015e-06
1.09909252747438e-05
1.4608520282450735e-05
1.9782683930462524e-05
2.713489663080179e-05
3.729827812604393e-05
5.077183437423127e-05
6.774116175618062e-05
8.790473141752135e-05
0.00011035762812666284
0.00013358400779994666
0.00015559148582670477
0.0001741865474272154
0.00018734782381670895
0.0001936168136745868
0.00019240755448900093
0.0001841475742217964
0.00017020254431370294
0.0001525957682924053
0.00013359222987650182
0.00011525531552844553
9.908905722112035e-05
8.584851891589647e-05
7.554719590374426e-05
6.763237544896365e-05
6.12567577227703e-05
5.55593788170489e-05
4.988205910436084e-05
4.3880285553630566e-05
3.752556658232079e-05
3.102671794144419e-05
2.4712528890799252e-05
1.8917045609401383e-05
1.3896027025377157e-05
9.786116591149286e-06
6.603351839554318e-06
4.26855268472231e-06
2.644576850088204e-06
1.5728394133562556e-06
9.013501112280605e-07
5.015245932913937e-07
2.747312006646337e-07
1.5146633741460732e-07
8.644490371596497e-08
5.2318563223928965e-08
3.3780242532920036e-08
2.2899332331672974e-08
1.58688658864368e-08
1.0973887548526705e-08
7.452307053144716e-09
4.926793169128031e-09
3.1590722854671185e-09
1.963002434535129e-09
1.183114011793137e-09
6.930501735662925e-10
3.95885450355412e-10
2.2168039128074513e-10
1.227372302354431e-10
6.812724419395404e-11
3.868519051209053e-11
2.3023585502441146e-11
1.4645791917934688e-11
9.99636242545958e-12
7.2148121186908035e-12
5.375029146438925e-12
4.040480080497464e-12
3.015404310531583e-12
2.2127765508228923e-12
1.5889860888970726e-12
1.1147515245118683e-12
7.643759650787815e-13
5.133047215842806e-13
3.3871424702936794e-13
2.2064531885826271e-13
1.4272712798579048e-13
9.230549688981878e-14
6.01076966555847e-14
3.9656454187322254e-14
2.6616470660612038e-14
1.819273585299592e-14