# vtk DataFile Version 4.1 
COMMENT
ASCII
DATASET STRUCTURED_POINTS 
DIMENSIONS 300 300 1 
ORIGIN 0 0 0
SPACING 0.020943951023931952 0.020943951023931952 0 
POINT_DATA 90000
SCALARS U double 1
LOOKUP_TABLE default
1.2441242641775943e-18
2.8095052530925205e-18
6.343893613492983e-18
1.4317703446693916e-17
3.2285913742368146e-17
7.271198548118111e-17
1.634869748080387e-16
3.6683869157474445e-16
8.211288436375225e-16
1.832815985769499e-15
4.077760725347188e-15
9.039396812200715e-15
1.9956570618235315e-14
4.3859960956940977e-14
9.591480326545432e-14
2.0860677958104378e-13
4.5100066520525863e-13
9.687289606528813e-13
2.0661581048681076e-12
4.3733108273782656e-12
9.180829754223838e-12
1.9103290861081214e-11
3.9374092542567996e-11
8.033471931404652e-11
1.6214171430229777e-10
3.235109928789133e-10
6.376572741357206e-10
1.2407645910956406e-09
2.3817438255408443e-09
4.507184061238207e-09
8.40278822760988e-09
1.5422539186555086e-08
2.784921916557627e-08
4.944354340745613e-08
8.625119452007546e-08
1.4774208449432558e-07
2.483457587974329e-07
4.094095063726296e-07
6.615283826314015e-07
1.0470678554924875e-06
1.6225169748673171e-06
2.4600857585497923e-06
3.6477322537410215e-06
5.286639275464799e-06
7.485150901647661e-06
1.0348426292968288e-05
1.3963652008212174e-05
1.8381585586590668e-05
2.359638515376621e-05
2.9526882924179276e-05
3.600334317122716e-05
4.276392684650209e-05
4.946426574879387e-05
5.57016450732666e-05
6.105253514811321e-05
6.511915651580314e-05
6.757817811791881e-05
6.822330949475036e-05
6.699397580535382e-05
6.398452467826746e-05
5.943204913755254e-05
5.368504933984055e-05
4.715876676775437e-05
4.028523196123332e-05
3.346640941797236e-05
2.703736840870112e-05
2.1243689795363417e-05
1.6234132977577193e-05
1.2066733179444233e-05
8.724557304990078e-06
6.136558744001117e-06
4.1992469643656185e-06
2.7959029260277742e-06
1.8114126667625104e-06
1.1420857041442373e-06
7.008219500211097e-07
4.1858731121214526e-07
2.433744421839908e-07
1.377573412699041e-07
7.5917960232162e-08
4.073820663661845e-08
2.1287402880090687e-08
1.0832796858278772e-08
5.368922521071946e-09
2.5917389267506426e-09
1.2186503325181894e-09
5.581793053834157e-10
2.4905460142030675e-10
1.0825733122738053e-10
4.5843152526200475e-11
1.891289193179242e-11
7.601953929538788e-12
2.977218403780208e-12
1.1362657338840722e-12
4.2270436498152144e-13
1.533181689888696e-13
5.4218326872737563e-14
1.8675044229674216e-14
6.2445235681352315e-15
2.011864747159129e-15
6.164344957413066e-16
1.769228968710346e-16
4.80236708736159e-17
1.4223555021209623e-17
6.572060736859315e-18
4.821047300310525e-18
4.066655996027496e-18
3.663772858578297e-18
3.808306266776777e-18
4.693635322019067e-18
6.43973135741416e-18
9.174445541139865e-18
1.3085182540819816e-17
1.841535514057219e-17
2.5423066805267526e-17
3.4321524816007745e-17
4.5213923568285534e-17
5.803174897549831e-17
7.248590651440888e-17
8.804181679394079e-17
1.0392930544044838e-16
1.1919387902541056e-16
1.3278802994411356e-16
1.4369155066608544e-16
1.5104143710499114e-16
1.5424766609813892e-16
1.5307260736274564e-16
1.4765893703490936e-16
1.3850175215662693e-16
1.2637214145526144e-16
1.1220867641977373e-16
9.699798413677709e-17
8.166506842013533e-17
6.698917832303427e-17
5.355363921365641e-17
4.173034309898546e-17
3.1693374478696604e-17
2.3452580472716163e-17
1.6896954030852186e-17
1.1838958333718359e-17
8.053476948925729e-18
5.307992559506831e-18
3.383155404728787e-18
2.0847025488431346e-18
1.2486412495727168e-18
7.418426648218157e-19
4.599398954713265e-19
3.239322548762519e-19
2.763651045660739e-19
2.77512729752174e-19
3.017039621650483e-19
3.338037637730225e-19
3.6586542670487934e-19
3.9404201259572415e-19
4.159351119087345e-19
4.2862389408505663e-19
4.2764413719619276e-19
4.0718230894315642e-19
3.6172091856244666e-19
2.8930462791975763e-19
1.9645928427984518e-19
1.0458564700376143e-19
5.750652870558528e-20
1.3023180013237558e-19
4.409471772567498e-19
1.1736664983821229e-18
2.6313252609265636e-18
5.364296709144487e-18
1.0468024067660852e-17
2.0235172795550544e-17
3.951864061774318e-17
7.847956746569954e-17
1.5798551683867507e-16
3.20024511181667e-16
6.475539432719506e-16
1.302045620815724e-15
2.5942015058243024e-15
5.116891293589489e-15
9.994925191538334e-15
1.9354250927828844e-14
3.720251776574045e-14
7.107728020657326e-14
1.3511501153276023e-13
2.557183590190885e-13
4.818991523493923e-13
9.03868950514675e-13
1.6858331023486681e-12
3.122573349332441e-12
5.734621734151551e-12
1.0423809983377323e-11
1.8719450176778045e-11
3.3154227657347774e-11
5.7815557138068356e-11
9.911832370888868e-11
1.6683227294967293e-10
2.7536407324513677e-10
4.452327672103807e-10
7.04583873854714e-10
1.0904654966237834e-09
1.6494556440642976e-09
2.437115544132746e-09
3.5156959695371935e-09
4.949597104503126e-09
6.798324573618346e-09
9.107113849609446e-09
1.1895981151887098e-08
1.5148606021426707e-08
1.8803003844177077e-08
2.274621851153277e-08
2.681508798842812e-08
3.080442214592829e-08
3.448273088466358e-08
3.7614154534238104e-08
3.998380683120536e-08
4.1422718852239046e-08
4.182828178790412e-08
4.1176670544783057e-08
3.952510311251551e-08
3.700364820980967e-08
3.379819572557279e-08
3.0127702921246865e-08
2.6219598182850213e-08
2.228714570215091e-08
1.8511756036441117e-08
1.503194730294344e-08
1.1939270430706907e-08
9.280326836017701e-09
7.063234678088419e-09
5.266605751010801e-09
3.849219231817513e-09
2.758982959131548e-09
1.940297259339229e-09
1.3394432680091543e-09
9.080182484479789e-10
6.046982779721399e-10
3.957296258027422e-10
2.545649130296925e-10
1.6100788784815858e-10
1.0014716890854942e-10
6.127103773480812e-11
3.687812479108972e-11
2.1839526107199092e-11
1.2727276278941869e-11
7.299570115826496e-12
4.120745442853049e-12
2.289887616871645e-12
1.2527142531525473e-12
6.747230057664718e-13
3.5782241658662797e-13
1.8685630582204648e-13
9.60887966711713e-14
4.8661596148374324e-14
2.427001379901262e-14
1.1921838370439015e-14
5.767969689526324e-15
2.7486685394047765e-15
1.29018075550169e-15
5.965131092875511e-16
2.716845418085569e-16
1.2191348693606445e-16
5.390452667884336e-17
2.3478002233055898e-17
1.0064830224745516e-17
4.245975200214202e-18
1.7681692609243307e-18
7.315509267085913e-19
3.0043886103008996e-19
1.1950494895511928e-19
4.445026185130331e-20
1.611841753775578e-20
6.999937452019787e-21
3.687228645201945e-21
1.5334245775462897e-21
2.5371853451659485e-22
1.4215445075329222e-23
2.195476841660388e-22
2.876677055252846e-22
1.886159282596519e-22
1.1505778462944035e-22
1.0920719921803956e-22
1.0414342052863414e-22
7.552338250689348e-23
4.506432811736179e-23
2.587450780792923e-23
1.6866296341485838e-23
1.775864637202432e-23
3.031925670093872e-23
5.78927625783423e-23
1.1063666766872913e-22
2.1402240117615713e-22
4.289612882577985e-22
8.980004579762862e-22
1.9439235295912362e-21
4.2906914095410315e-21
9.565439875564219e-21
2.1431941787429574e-20
4.8151808901321565e-20
1.0837956248070275e-19
2.442685760607062e-19
5.510909329664608e-19
3.2880593241836593e-19
7.625604575969313e-19
1.7680494835049295e-18
4.096852113897161e-18
9.483975407299359e-18
2.1926159172249633e-17
5.0607349840270625e-17
1.1657058948137908e-16
2.6787489850900354e-16
6.138789412204163e-16
1.4024159882625675e-15
3.1925997984490595e-15
7.23950334515619e-15
1.63449866262149e-14
3.6726292398497596e-14
8.208820085359336e-14
1.8242239576702198e-13
4.028464367813076e-13
8.835319586056874e-13
1.923406474131066e-12
4.153540472364669e-12
8.891714918723488e-12
1.8857467267532714e-11
3.9592633593850194e-11
8.223831235926351e-11
1.6887030494399974e-10
3.4256186218676974e-10
6.859891581794742e-10
1.3551085980627594e-09
2.638744128526231e-09
5.061477973201797e-09
9.556716043004876e-09
1.7749665515318152e-08
3.240602532337948e-08
5.8119887458025536e-08
1.0232976946999379e-07
1.767575126348199e-07
2.9934943590512215e-07
4.96747069200024e-07
8.072086008687691e-07
1.2837277967419756e-06
1.9968525229669426e-06
3.036411453521575e-06
4.5110708574134964e-06
6.544459062359063e-06
9.266641679577413e-06
1.2800137823580412e-05
1.724052447954165e-05
2.263296649557105e-05
2.8947559636351088e-05
3.605783612677029e-05
4.3727681736708105e-05
5.161176987651109e-05
5.9273117085421606e-05
6.621852907515438e-05
7.194899346875321e-05
7.601832951413259e-05
7.80906569611339e-05
7.79863973924742e-05
7.570802266044713e-05
7.144041608332127e-05
6.552567117159465e-05
5.841717346865934e-05
5.0621625542731094e-05
4.263938461530936e-05
3.491281417765918e-05
2.778969537958271e-05
2.1504973983559897e-05
1.618027787203713e-05
1.1837620986484794e-05
8.422031192188433e-06
5.82757955894527e-06
3.922160417685376e-06
2.5678897447716043e-06
1.6356491170384562e-06
1.0137149037406938e-06
6.113676674825528e-07
3.5883809860157173e-07
2.0499896724651476e-07
1.1400088652911395e-07
6.171817630277864e-08
3.2531893716124725e-08
1.669698734576045e-08
8.345230121984763e-09
4.062061252867535e-09
1.9257350203228876e-09
8.892415092091443e-10
3.999857417966246e-10
1.7526564350695339e-10
7.481710008286054e-11
3.111583761122282e-11
1.2608613469872126e-11
4.978459555872895e-12
1.9156223099115168e-12
7.183808747414123e-13
2.6255991276349913e-13
9.349571426607277e-14
3.2404668987130894e-14
1.0908386373152435e-14
3.55523179200646e-15
1.119179927203993e-15
3.422041183039023e-16
1.0489658038697441e-16
3.495449802708559e-17
1.395760810290955e-17
6.654456498145581e-18
3.491560097818512e-18
2.1044898501577644e-18
1.848427455180899e-18
2.4483607112474614e-18
3.784161836749968e-18
5.8895805477980114e-18
8.93932177516136e-18
1.3204025438967352e-17
1.8991300356652753e-17
2.6583966021671076e-17
3.617739957744246e-17
4.7816685129916947e-17
6.133907370508727e-17
7.633307131174732e-17
9.212812954532887e-17
1.0782632368750123e-16
1.2237968379787144e-16
1.347060300652729e-16
1.4382552380454902e-16
1.4899312647401942e-16
1.498012047138385e-16
1.4623219041060487e-16
1.3865196611400567e-16
1.2774741883329876e-16
1.1442285117517962e-16
9.967683364913266e-17
8.448233241795114e-17
6.968899641426536e-17
5.595912550656332e-17
4.374044602536022e-17
3.327156361456532e-17
2.461124613234672e-17
1.7680935801950505e-17
1.2310684273483291e-17
8.281133263323703e-18
5.3572021772017004e-18
3.311955652070351e-18
1.941208627040132e-18
1.0706273232931284e-18
5.574979560146499e-19
2.8919002761523264e-19
1.7989347151436603e-19
1.6667477825783704e-19
2.0542486106030472e-19
2.6693964509192986e-19
3.332034251354423e-19
3.9391189655695237e-19
4.433274078322388e-19
4.776467995312168e-19
4.931344945009043e-19
4.8530058414903005e-19
4.493710178791024e-19
3.8219286945478584e-19
2.8552238493210267e-19
1.7033917357026949e-19
6.14467055291947e-20
1.3255351903653984e-21
5.243649228819377e-20
2.987942768777059e-19
8.521861765989722e-19
1.8785402558837792e-18
3.680313089503749e-18
6.9099561211121825e-18
1.3063858195879824e-17
2.554698845152555e-17
5.186566623250693e-17
1.080129768591703e-16
2.2707229217849214e-16
4.758818314938062e-16
9.870358996645319e-16
2.019976764556347e-15
4.077145758466184e-15
8.12413954983585e-15
1.6005832783232883e-14
3.1230292902219644e-14
6.043878608398526e-14
1.1614439038043084e-13
2.2178840503222741e-13
4.2096704928363865e-13
7.940218413400766e-13
1.4873454877609536e-12
2.764083529492141e-12
5.089787025432542e-12
9.273271351049352e-12
1.669140660448139e-11
2.963604968293163e-11
5.1829876401720196e-11
8.916182034197873e-11
1.5068646166634224e-10
2.499074699469269e-10
4.0631483457689463e-10
6.470626755292543e-10
1.0085582317479071e-09
1.5375930850076932e-09
2.291509650041572e-09
3.3368008568266548e-09
4.7455429439293536e-09
6.58921610091536e-09
8.929813986603805e-09
1.1808679743749347e-08
1.5234172317817397e-08
1.9169935197777777e-08
2.3526030043339005e-08
2.8155316501889588e-08
3.2857058571118946e-08
3.738877661675315e-08
4.148595333807401e-08
4.488760601789636e-08
4.7364324598075773e-08
4.874452263329844e-08
4.8934628307019944e-08
4.792982892497334e-08
4.581361088198557e-08
4.274634254212905e-08
3.894506361724721e-08
3.46580380892317e-08
3.013821834329868e-08
2.561949672665132e-08
2.129864491223928e-08
1.7324468057058128e-08
1.3794283400107305e-08
1.0756672336591395e-08
8.218732334163962e-09
6.155812406147578e-09
4.521879075478204e-09
3.259086774427913e-09
2.3056603627476703e-09
1.6017069897591919e-09
1.0929765578439881e-09
7.328512363168183e-10
4.829708285267179e-10
3.1292159004806446e-10
1.9936868180212424e-10
1.2493138861100534e-10
7.701167612886012e-11
4.6706925133949765e-11
2.7874585370195423e-11
1.637175446047314e-11
9.464425060121116e-12
5.385845832536984e-12
3.0173040704521356e-12
1.6642984077867452e-12
9.039172152964521e-13
4.834448807183162e-13
2.5463552986581297e-13
1.320916375635019e-13
6.749079001009071e-14
3.396670546652372e-14
1.6839426760566216e-14
8.224130433431595e-15
3.9569943610098465e-15
1.875779205957461e-15
8.76144200017771e-16
4.0326239123955325e-16
1.8291000968236343e-16
8.175145133239893e-17
3.600282744325799e-17
1.5629830543322954e-17
6.697999126206081e-18
2.8366094330869055e-18
1.1840221671775052e-18
4.833898983123206e-19
1.9277024128108054e-19
7.716634085881119e-20
3.2324102438337816e-20
1.3610657490753233e-20
4.8916299933997124e-21
1.3088621393289043e-21
4.846723980667981e-22
4.602735001753007e-22
3.09819495339066e-22
8.992271060829827e-23
1.365546903756279e-23
4.040995437327304e-23
5.353797863144292e-23
3.5050465948954574e-23
1.770297813955317e-23
1.1914184826316679e-23
1.0865230595004875e-23
1.0984465359031296e-23
1.2483775587484568e-23
1.6640673363538473e-23
2.5712969218062468e-23
4.406409070142306e-23
8.439478607706611e-23
1.792238036749861e-22
4.024245200133134e-22
9.22676193262081e-22
2.130177305279124e-21
4.927062894150525e-21
1.140180372507022e-20
2.6398990947989332e-20
6.11625291200514e-20
1.417863001914693e-19
8.332819858423942e-20
1.9853666931293138e-19
4.728303160113224e-19
1.1252555311989275e-18
2.675124051972177e-18
6.35109079418862e-18
1.5053157963756403e-17
3.5607624837419006e-17
8.403353569982295e-17
1.9779284918848193e-16
4.641577633591724e-16
1.0855748593143108e-15
2.5294542877353193e-15
5.869359150519489e-15
1.3557004741492421e-14
3.1156274245306514e-14
7.120678029022119e-14
1.6175644420423722e-13
3.6502378901592763e-13
8.177859674630887e-13
1.8177823031793546e-12
4.0062588012302474e-12
8.74843034749622e-12
1.891490675110734e-11
4.046151148033034e-11
8.556949880354514e-11
1.7877489804829095e-10
3.6870166476070854e-10
7.5005933223712e-10
1.5039774690866856e-09
2.9702233056730573e-09
5.773251567564524e-09
1.1036272981487014e-08
2.0734223824493107e-08
3.825739774913968e-08
6.92803963384733e-08
1.2305055785394933e-07
2.1421600466766306e-07
3.652900363121872e-07
6.097746451171713e-07
9.958184221585294e-07
1.5900458542752911e-06
2.480867174625645e-06
3.7801959428324764e-06
5.6221493356450595e-06
8.15712042599895e-06
1.153976583370576e-05
1.5910111605969385e-05
2.1368231454996102e-05
2.794471969929221e-05
3.5571169866232356e-05
4.405656262399128e-05
5.307622338069022e-05
6.217925664844536e-05
7.081783211298913e-05
7.839762169201403e-05
8.434386807361242e-05
8.817322396755397e-05
8.955893897654364e-05
8.837713558686571e-05
8.47250339354652e-05
7.890741609842095e-05
7.13940111136196e-05
6.275617853738942e-05
5.359484056182555e-05
4.4472289749952524e-05
3.585836476022018e-05
2.8097376247932745e-05
2.1397334092280823e-05
1.583872511353754e-05
1.1397207726560416e-05
7.973477213471269e-06
5.424043692297254e-06
3.5882356664640807e-06
2.308755620863355e-06
1.4450113071909413e-06
8.798681477118464e-07
5.212825519680756e-07
3.005337340628012e-07
1.6862875963579036e-07
9.20960154817484e-08
4.896338625649548e-08
2.534382311290106e-08
1.2772897643248081e-08
6.26855777758844e-09
2.9960471982619225e-09
1.3946717822118195e-09
6.323753995822267e-10
2.793140715560773e-10
1.201875989138891e-10
5.038596047957036e-11
2.0581532078167696e-11
8.192202273987517e-12
3.177696223233086e-12
1.2012444479690496e-12
4.4252067441493915e-13
1.588216435387979e-13
5.550454644884124e-14
1.8874627661167087e-14
6.2439809796740174e-15
2.014021525287215e-15
6.390787124333243e-16
2.0368129802405544e-16
6.722607361881977e-17
2.3338285474801735e-17
8.193833695752372e-18
2.6333612872188402e-18
7.653541567970238e-19
5.303094163148399e-19
1.0931045466753843e-18
2.1550761452757996e-18
3.729545859085205e-18
6.017931804731819e-18
9.321444575996496e-18
1.3977828285778432e-17
2.03114389522558e-17
2.858303300628489e-17
3.893182378893887e-17
5.131273325281574e-17
6.544116439252192e-17
8.076253670621254e-17
9.64625989463175e-17
1.1152724775991962e-16
1.2484906433741082e-16
1.3536530182567938e-16
1.4220246058724009e-16
1.44799040435987e-16
1.4298188919001854e-16
1.3698175887531533e-16
1.2738723868499529e-16
1.150492674925032e-16
1.0095749330133748e-16
8.611290166244944e-17
7.141836305653457e-17
5.760167685578443e-17
4.5176818382709383e-17
3.4440902802213065e-17
2.5498615610813083e-17
1.8303230872357596e-17
1.2703583016156423e-17
8.488585449786868e-18
5.424003931325718e-18
3.279244662062248e-18
1.8442960358770503e-18
9.384302967326502e-19
4.128795322811e-19
1.496669969631496e-19
5.836588172205326e-20
7.201016308888553e-20
1.428670643559895e-19
2.383964008464967e-19
3.3750340951199676e-19
4.27124491700895e-19
4.992238138909678e-19
5.483633308941008e-19
5.700824308745239e-19
5.603418598507873e-19
5.162202048105679e-19
4.378801092672253e-19
3.315334800448417e-19
2.1273955765297954e-19
1.0893614895949762e-19
5.982496301244515e-20
1.1450195173778293e-19
3.25735770935985e-19
7.45691152943642e-19
1.4355773597506662e-18
2.5176080238690763e-18
4.327900248417718e-18
7.786651710099337e-18
1.5213146356789995e-17
3.2028622851288785e-17
7.02072116539246e-17
1.5513894989945133e-16
3.391088333153583e-16
7.275317917407201e-16
1.5296599276969893e-15
3.156034840634966e-15
6.404859802091021e-15
1.2816762368624919e-14
2.534669851111887e-14
4.962889418761063e-14
9.634039905046177e-14
1.8557561243322599e-13
3.548475600113798e-13
6.735139335863535e-13
1.2683474476536488e-12
2.3679726561211248e-12
4.37836894538532e-12
8.007947818920921e-12
1.4468981711921097e-11
2.5791977312068562e-11
4.529953579830278e-11
7.829337663499707e-11
1.3300757198900052e-10
2.2186559348444816e-10
3.6304001708787085e-10
5.822435844832638e-10
9.145744310725106e-10
1.4061006368017172e-09
2.1147170691974014e-09
3.1096746995315138e-09
4.469119226442628e-09
6.275040958188912e-09
8.605284513397923e-09
1.1522720590022377e-08
1.5062318051386182e-08
1.921758174365042e-08
2.3928482891613243e-08
2.9073406452968536e-08
3.4467582743991807e-08
3.9869839159665106e-08
4.499831199488006e-08
4.9554169453946436e-08
5.325073160090062e-08
5.584402563971819e-08
5.716015183011522e-08
5.711508243545665e-08
5.572367868700761e-08
5.309655678039552e-08
4.9425550745301356e-08
4.496042844272123e-08
3.998080494626984e-08
3.4767629399104814e-08
2.957818770563587e-08
2.4627460708311033e-08
2.007723123653689e-08
1.6032895175240263e-08
1.2546786328599541e-08
9.626133491422879e-09
7.243556667915046e-09
5.348195282160492e-09
3.876001592592095e-09
2.75827394980235e-09
1.92802066425353e-09
1.3241556917604504e-09
8.937992261640356e-10
5.930941476968019e-10
3.8698020268501685e-10
2.4832733763485623e-10
1.567515541919314e-10
9.734738945268897e-11
5.948798139277893e-11
3.577573730698323e-11
2.117677054591531e-11
1.233945414679275e-11
7.078593618543322e-12
3.9981526472585795e-12
2.2237030841352487e-12
1.2179806038394995e-12
6.57035671644143e-13
3.4910773306017084e-13
1.8272051908359375e-13
9.421210512773944e-14
4.7857617846976323e-14
2.39526626709785e-14
1.181270714920023e-14
5.7408409869983656e-15
2.7496234289844115e-15
1.2980286185727266e-15
6.040108992991622e-16
2.7706964639190755e-16
1.2530968044298163e-16
5.589722845027425e-17
2.4605256555629402e-17
1.0688781684979872e-17
4.577392378450828e-18
1.93004414396962e-18
8.035718523169475e-19
3.3351481666667677e-19
1.3859393292632478e-19
5.633178081339731e-20
2.1492211124317747e-20
7.898211912124716e-21
3.3339631993905777e-21
1.6741393664607851e-21
7.024989363459093e-22
1.575141873253053e-22
2.129532947657699e-23
4.929353978471481e-23
5.153938484526739e-23
2.1659241129906293e-23
4.247716190440416e-24
3.937777183699607e-24
6.334314163122285e-24
5.787292041561073e-24
4.161024786820177e-24
3.914548556850919e-24
5.262023807504489e-24
7.732313845586022e-24
1.422704323101342e-23
3.2597372996228125e-23
7.852478030667688e-23
1.8918487206285974e-22
4.54342906836601e-22
1.0859243462072923e-21
2.5876555219623565e-21
6.16216650393071e-21
1.467748174535381e-20
3.496968585713614e-20
2.0253554031505236e-20
4.959066095135855e-20
1.2135098484069295e-19
2.96697044796607e-19
7.245926133625972e-19
1.767124513438392e-18
4.302425576714454e-18
1.0454672025451665e-17
2.5347338923019972e-17
6.12983174272779e-17
1.478162553475881e-16
3.553111528437924e-16
8.510488824036036e-16
2.030456743279e-15
4.823337481435694e-15
1.1403076554345867e-14
2.6816732602483493e-14
6.270036423631426e-14
1.4566895654808497e-13
3.3607060827410666e-13
7.694433904942718e-13
1.7470489641789185e-12
3.9309811506217374e-12
8.758657517007503e-12
1.9309844001799667e-11
4.20903098835229e-11
9.063615697435871e-11
1.9265917130662244e-10
4.0392513321361797e-10
8.346269895158032e-10
1.69834715238569e-09
3.4007210532583676e-09
6.695771611750069e-09
1.2953789561215406e-08
2.4606401739751835e-08
4.5861655897926124e-08
8.38114673813877e-08
1.5007800269759612e-07
2.631503535817722e-07
4.5152620653214154e-07
7.576663797142028e-07
1.2425629283468832e-06
1.990394094821396e-06
3.1123002780177663e-06
4.747823357724648e-06
7.062133930388278e-06
1.0237022204015084e-05
1.4453980238367255e-05
1.9868753463204226e-05
2.6578547710465044e-05
3.458546010064122e-05
4.3762171306056544e-05
5.382774749583856e-05
6.434172465564552e-05
7.472286168155877e-05
8.429494025174562e-05
9.23563614378491e-05
9.826432814333457e-05
0.00010151977139769758
0.00010183739729071059
9.918712713584062e-05
9.379855031411008e-05
8.612752278874523e-05
7.679175957016316e-05
6.64881698097771e-05
5.590734212033045e-05
4.5659583236975396e-05
3.622287626799978e-05
2.7917435375205577e-05
2.0905811278924764e-05
1.5213096857436512e-05
1.0759440330831339e-05
7.3968543826766076e-06
4.9437290464766054e-06
3.212756333623672e-06
2.030400904162383e-06
1.2480489972023718e-06
7.462622743292331e-07
4.3413466053371694e-07
2.457493089075232e-07
1.3538020746037648e-07
7.258910261169643e-08
3.788763149602564e-08
1.9252519377784072e-08
9.525634105521314e-09
4.589510366468383e-09
2.1535387629548383e-09
9.842345990634972e-10
4.3817555365941664e-10
1.900395290375313e-10
8.030229214572793e-11
3.3062933449961974e-11
1.3265504776045749e-11
5.186916627780573e-12
1.97660139190698e-12
7.340929760898002e-13
2.6568899431455014e-13
9.370166248737297e-14
3.220503722130087e-14
1.079684327213609e-14
3.5404898433067567e-15
1.1422172947266015e-15
3.656087801215719e-16
1.166717093441115e-16
3.6557629349816353e-17
1.0554442651868645e-17
2.354139089681797e-18
1.9889414745024906e-19
7.083452433830075e-20
5.770906797510058e-19
1.339668333930546e-18
2.4129463222802477e-18
4.03412669373494e-18
6.51184299650708e-18
1.017930772984176e-17
1.5368249917190074e-17
2.2376035915828076e-17
3.141435209179411e-17
4.254248721403801e-17
5.559927271402163e-17
7.015362762811193e-17
8.549344752986841e-17
1.0066606629934771e-16
1.145719287101342e-16
1.2609937465330326e-16
1.3427659316484572e-16
1.3841066769154324e-16
1.3818534518086284e-16
1.3369834401592731e-16
1.254329077529713e-16
1.1417280171540982e-16
1.0088104352235817e-16
8.656776865609851e-17
7.217122401515237e-17
5.84693357339918e-17
4.603015900115096e-17
3.520052071200245e-17
2.61254002277717e-17
1.8787066687063754e-17
1.3052628615115651e-17
8.720618167577619e-18
5.5603829308836305e-18
3.3413356558813386e-18
1.8517893873401928e-18
9.08850418190139e-19
3.616522863932617e-19
9.029128364308193e-20
2.444410420662224e-21
2.9076121435758845e-20
1.2006931136489945e-19
2.401704090805705e-19
3.6536821836112933e-19
4.797243408143722e-19
5.726940171094782e-19
6.370550431830317e-19
6.676325184587147e-19
6.61013427246759e-19
6.163499265875551e-19
5.371354046794541e-19
4.3350732499044295e-19
3.2422611209791564e-19
2.371031764227063e-19
2.065054047874937e-19
2.669844812426438e-19
4.435772370452085e-19
7.42663256374971e-19
1.1537069641395071e-18
1.6841264931870688e-18
2.4718035014185772e-18
4.062584871236285e-18
8.024399198481914e-18
1.823671321778211e-17
4.352414166494102e-17
1.0294914713043467e-16
2.3633146376170366e-16
5.2497183582742e-16
1.1321672662794077e-15
2.3818797865817355e-15
4.910538748304332e-15
9.958218406907245e-15
1.9923710306234636e-14
3.941535269948537e-14
7.722419633088574e-14
1.4999271780022008e-13
2.889555858985222e-13
5.521513701490818e-13
1.0461834984249602e-12
1.964268882671213e-12
3.6513498277180255e-12
6.712866886236829e-12
1.2191672559074365e-11
2.1847388549450368e-11
3.858335513072711e-11
6.707595282380201e-11
1.1466539978288095e-10
1.925598610646932e-10
3.173776058857756e-10
5.129960335059158e-10
8.125845286009811e-10
1.2605690831462447e-09
1.9141201379553293e-09
2.8435964135643956e-09
4.131259487344287e-09
5.867553838232079e-09
8.144386200055837e-09
1.10451830843206e-08
1.4632065303949945e-08
1.8931202856476548e-08
2.3918181779676528e-08
2.9505844351317535e-08
3.553734587356335e-08
4.178692505761621e-08
4.797002500030252e-08
5.376298968304771e-08
5.883082378382085e-08
6.285980077420337e-08
6.559044512243968e-08
6.68459459636717e-08
6.655155909587472e-08
6.474196399575402e-08
6.155557316379334e-08
5.7216994851457053e-08
5.201074361896956e-08
4.625048771365139e-08
4.024842160433851e-08
3.4288786927121224e-08
2.8608360742847193e-08
2.3385223173620703e-08
1.873565470135808e-08
1.4717868663597145e-08
1.1340603905460997e-08
8.574402329040793e-09
6.363590155117979e-09
4.637428416883288e-09
3.3194473296909803e-09
2.3345068254475612e-09
1.6135516401845803e-09
1.0963192464820054e-09
7.324142803303374e-10
4.812082507330854e-10
3.1099204560484877e-10
1.9773443088868222e-10
1.2370953032277064e-10
7.616892599196666e-11
4.6160219889116183e-11
2.7537908349210597e-11
1.6174146049725533e-11
9.353849882031e-12
5.327049484467765e-12
2.987836108407874e-12
1.6506120407743738e-12
8.982441552527909e-13
4.815559742579443e-13
2.5435676557670494e-13
1.3238079766339238e-13
6.789433132888493e-14
3.43172156734948e-14
1.709646233413445e-14
8.395850470395505e-15
4.064792276593525e-15
1.9403549088960554e-15
9.133897913564594e-16
4.240813921751263e-16
1.9425698661099308e-16
8.781177521993461e-17
3.917541069745443e-17
1.7247041724215434e-17
7.495630600011539e-18
3.221693961635892e-18
1.3729689155396649e-18
5.795227072267354e-19
2.403468055353144e-19
9.745826434906952e-20
3.9455008974715825e-20
1.6589873019482176e-20
7.094162075010021e-21
2.753187447089246e-21
9.064059056532761e-22
3.3686018552611456e-22
2.0027565611630698e-22
1.0949004155587368e-22
3.208049063409679e-23
2.2821901204858228e-24
3.2574392845350782e-24
6.2997948926887114e-24
3.902170568708243e-24
9.629034970661558e-25
5.698571074117229e-25
1.0741877622757128e-24
9.733729910865547e-25
1.803390822534276e-24
5.5911375690581145e-24
1.473862813883356e-23
3.729962987758953e-23
9.347029797330404e-23
2.3020412826688524e-22
5.6335049807874815e-22
1.3789636887059272e-21
3.3767090938683972e-21
8.269669918771538e-21
4.7221191372851606e-21
1.1885769440261835e-20
2.9892526589195896e-20
7.510561346792875e-20
1.8847749388493273e-19
4.723031956383125e-19
1.181560492268835e-18
2.950261021252274e-18
7.350640703417523e-18
1.8269896988226123e-17
4.528689074174029e-17
1.1191937700336472e-16
2.756732822224873e-16
6.7653128558922e-16
1.653547074261661e-15
4.023411288405311e-15
9.741261297172828e-15
2.3455840538351097e-14
5.613731075151502e-14
1.334579216482613e-13
3.149452856695426e-13
7.372418486504718e-13
1.7105581804597882e-12
3.930732518346818e-12
8.938425102665532e-12
2.0097285863672057e-11
4.464122702431323e-11
9.787914332412839e-11
2.1165810181866983e-10
4.510350869684862e-10
9.463739005263885e-10
1.9536462895824467e-09
3.964804064962354e-09
7.904242909893342e-09
1.546820219734154e-08
2.9692470310424714e-08
5.586922810698846e-08
1.0297173890682075e-07
1.8577495992861351e-07
3.2786095678785557e-07
5.656396103165402e-07
9.533584274848812e-07
1.5687814883858511e-06
2.5187658758037245e-06
3.943378073196761e-06
6.016570602509018e-06
8.940971987056264e-06
1.2934306072440716e-05
1.820565087375425e-05
2.4921387757292083e-05
3.316326294246501e-05
4.288411065104816e-05
5.3869703564637616e-05
6.571686594411977e-05
7.783740245253313e-05
8.949399214809459e-05
9.986820373529772e-05
0.00010815338064367814
0.00011365823806400932
0.00011590271661332824
0.00011468752732130917
0.00011012332834979381
0.00010261362225151205
9.279513101128775e-05
8.14480011912226e-05
6.939349727547888e-05
5.7397710186908914e-05
4.609644312430457e-05
3.5950194306650075e-05
2.7230988452656075e-05
2.003659505317272e-05
1.432368446028492e-05
9.950138989935217e-06
6.717708271882874e-06
4.408643458043366e-06
2.81290270353497e-06
1.7451943385138231e-06
1.0530397192479489e-06
6.180574849933564e-07
3.529116166899491e-07
1.9607585385952013e-07
1.0601555672103119e-07
5.579132204159944e-08
2.8581001145224173e-08
1.4254827781503845e-08
6.9227421215751855e-09
3.274023541985765e-09
1.5080884239666314e-09
6.766520128432357e-10
2.9576601687971245e-10
1.259577788209005e-10
5.226893402737101e-11
2.1137328064808728e-11
8.330789603899047e-12
3.2002759936068296e-12
1.1983484542188123e-12
4.3742685122173247e-13
1.5567613045705834e-13
5.4039368102736545e-14
1.8313940543503653e-14
6.070273287980484e-15
1.9726272852745725e-15
6.293468543431414e-16
1.9625924111483297e-16
5.87133409998772e-17
1.6120894236888587e-17
3.760552423214891e-18
7.476336126473653e-19
3.653479813496281e-19
5.849089299726185e-19
9.646813080945024e-19
1.5842807025509873e-18
2.673840728455296e-18
4.503047286812278e-18
7.363093879285619e-18
1.156542408531677e-17
1.742257703368774e-17
2.5200695923962894e-17
3.5048787874043896e-17
4.6919972833018986e-17
6.050578987582886e-17
7.52054888987165e-17
9.01470912567755e-17
1.0426607731121789e-16
1.1643321297047254e-16
1.2560936075593577e-16
1.3099653067032062e-16
1.321538741778606e-16
1.290551502587104e-16
1.220779904694296e-16
1.1193085656639687e-16