# vtk DataFile Version 4.1 
COMMENT
ASCII
DATASET STRUCTURED_POINTS 
DIMENSIONS 300 300 1 
ORIGIN 0 0 0
SPACING 0.020943951023931952 0.020943951023931952 0 
POINT_DATA 90000
SCALARS U double 1
LOOKUP_TABLE default
4.76724704394008e-19
1.064429980088072e-18
1.8330666442015533e-18
3.577784343522941e-18
8.464231789044508e-18
2.0816611568979462e-17
4.96787722495275e-17
1.157793519575026e-16
2.6757869580715606e-16
6.164986317456294e-16
1.4142628489092613e-15
3.223240082315018e-15
7.289509322336487e-15
1.6349530627344885e-14
3.634689601486445e-14
8.002471837986263e-14
1.7431042172291363e-13
3.752064357864842e-13
7.971854146606846e-13
1.6698898911795928e-12
3.444812879421582e-12
6.990822385945977e-12
1.394290878274057e-11
2.7307218894477194e-11
5.248181202554283e-11
9.893112904785336e-11
1.8285491076781877e-10
3.3131151874203723e-10
5.883565557258856e-10
1.0237455379708969e-09
1.744423126165428e-09
2.908044275367732e-09
4.735738631681444e-09
7.518056809000549e-09
1.160419662234078e-08
1.7362577768411887e-08
2.5105193566831154e-08
3.49846598071658e-08
4.690461800131088e-08
6.052520472079814e-08
7.547493073865143e-08
9.186472169737321e-08
1.1110872878728958e-07
1.3689463620735468e-07
1.7598612468961666e-07
2.385271924306454e-07
3.378194585393243e-07
4.90240109352118e-07
7.169315475512463e-07
1.0497312839535827e-06
1.5439490279797626e-06
2.2995141361590184e-06
3.4895260203987765e-06
5.391696878067505e-06
8.41446524927644e-06
1.3106869051423345e-05
2.0140746300237033e-05
3.0256273274417082e-05
4.416748714308671e-05
6.243284000403526e-05
8.530581890384469e-05
0.00011259028532903421
0.00014353182306707166
0.00017677722979460474
0.00021042722680937207
0.00024219214285241288
0.00026963897959930667
0.00029049569238059436
0.0003029610051861381
0.00030596141157329226
0.0002993043248768161
0.00028369668316023325
0.00026062664956598663
0.00023213477132367943
0.00020052239043525768
0.0001680539792618379
0.00013670512010891596
0.00010799182312907792
8.289529828519987e-05
6.18753888882122e-05
4.4950597896601784e-05
3.181547043592189e-05
2.1966832442287444e-05
1.4816821713416789e-05
9.779709710446071e-06
6.328350705327338e-06
4.022799629891864e-06
2.5174597038666304e-06
1.5542708626785984e-06
9.487079278236491e-07
5.736466385771535e-07
3.4424757530902496e-07
2.0538785490340536e-07
1.2203901537130904e-07
7.234211519396468e-08
4.285628244636064e-08
2.5416563507229704e-08
1.51134623177385e-08
9.020771419097205e-09
5.407243346431647e-09
3.2543754115632143e-09
1.9648901143741564e-09
1.1885398679697945e-09
7.192193883391116e-10
4.348357799148701e-10
2.624395164292231e-10
1.5806254882823927e-10
9.501909804610603e-11
5.7048577071479616e-11
3.4237644401109055e-11
2.055736349409606e-11
1.235730648265999e-11
7.438584827598338e-12
4.482955536159847e-12
2.7028254859068343e-12
1.6283235652029897e-12
9.788955810614144e-13
5.865084202840635e-13
3.500234652395095e-13
2.0820228211160306e-13
1.2375444117923266e-13
7.388664034481164e-14
4.466483907247902e-14
2.7612728971159147e-14
1.7629449468283198e-14
1.1696067456223872e-14
8.063658033022972e-15
5.7428149365179094e-15
4.185862108496127e-15
3.093443697893093e-15
2.300814364502272e-15
1.7139170824700627e-15
1.2752688370032193e-15
9.466966081050009e-16
7.009567642366459e-16
5.17689886398926e-16
3.813468856633779e-16
2.799863177945738e-16
2.0448469883898638e-16
1.479747641540303e-16
1.0541836457053909e-16
7.324785918763598e-17
4.90294800677217e-17
3.113024921003611e-17
1.8401025422775573e-17
9.910195463180093e-18
4.766641613895856e-18
2.0555543703024275e-18
8.82540878314516e-19
4.912702248554826e-19
3.9930812248487786e-19
4.94106150449982e-19
1.048225303353882e-18
2.6446112785042355e-18
6.0386558544547354e-18
1.2011792411943613e-17
2.1281745246611503e-17
3.452266183083416e-17
5.2515371699096494e-17
7.639968094303024e-17
1.0794539789504568e-16
1.4970691633025522e-16
2.0489044814307636e-16
2.767610242348713e-16
3.674728141316847e-16
4.763528506297848e-16
5.979398696207561e-16
7.20506705428144e-16
8.263890944285291e-16
8.961849015382602e-16
9.197022614503907e-16
9.17276518037162e-16
9.755076282270266e-16
1.3012638258386785e-15
2.2965737719286244e-15
4.65447843192387e-15
9.472061558090377e-15
1.8372576926681114e-14
3.3626371688806055e-14
5.826588799165994e-14
9.621532989016473e-14
1.525255583763828e-13
2.339739934219325e-13
3.5068235889956257e-13
5.203116347571994e-13
7.784807546375678e-13
1.2038190458967502e-12
1.9767341881053155e-12
3.514261816872176e-12
6.772584368916219e-12
1.3909305425339521e-11
2.9695361470231184e-11
6.444106934879509e-11
1.3988218902254042e-10
3.0065870245662796e-10
6.359902645462815e-10
1.3192548968881123e-09
2.6777602042699052e-09
5.311247801251035e-09
1.028531742831407e-08
1.9433794107165372e-08
3.580937459876613e-08
6.431993036068491e-08
1.1257173625080064e-07
1.919025071415471e-07
3.185195195041523e-07
5.145598729897364e-07
8.087710850087237e-07
1.236397702771098e-06
1.8377997494034535e-06
2.6553819413400884e-06
3.728636842395839e-06
5.087528641235844e-06
6.74503180087601e-06
8.69026544989403e-06
1.088411479074826e-05
1.325924210505157e-05
1.5725743627797007e-05
1.818235545654242e-05
2.0531285743818378e-05
2.2693006809492736e-05
2.4616455421721158e-05
2.6280796282302552e-05
2.768751933937151e-05
2.8845715500666757e-05
2.975756405476385e-05
3.0413406885563543e-05
3.0804418824184324e-05
3.095502933275359e-05
3.096802704105744e-05
3.106585431292473e-05
3.160633093508839e-05
3.305370721907497e-05
3.589769994404621e-05
4.0531293213000065e-05
4.711636402032834e-05
5.547708075815751e-05
6.505892035637154e-05
7.497519311503361e-05
8.413790425867941e-05
9.144431106935087e-05
9.597374116645544e-05
9.714684135966424e-05
9.481158820707842e-05
8.924202806330402e-05
8.105897556299308e-05
7.109945712251517e-05
6.026929708675547e-05
4.941064210351819e-05
3.920632912675316e-05
3.0130199480276164e-05
2.2440801086376886e-05
1.6207999195509887e-05
1.1358657792368117e-05
7.728149795111158e-06
5.107602637255327e-06
3.280932290851186e-06
2.04960731632302e-06
1.2459668040075959e-06
7.375520497936588e-07
4.2543879896628096e-07
2.3931061323972434e-07
1.313674484753382e-07
7.042113283864626e-08
3.688254676914415e-08
1.887705357882364e-08
9.440501567292422e-09
4.611742342469016e-09
2.2003621630288833e-09
1.0263250493803675e-09
4.695162960521201e-10
2.1214401169562203e-10
9.574153548972175e-11
4.3726102063527625e-11
2.0382808704932514e-11
9.664171883224023e-12
4.578530419719622e-12
2.1088642786788264e-12
9.154659734096128e-13
3.6229261171341955e-13
1.2552185615689262e-13
3.583011049763763e-14
7.627600985710516e-15
1.289066000410607e-15
8.50125490093315e-16
1.1373477596629825e-15
1.0898477691433887e-15
8.041063225495383e-16
4.953584202715466e-16
2.662966390718177e-16
1.2810645281351147e-16
5.610000304093514e-17
2.28291279853403e-17
9.012687031163813e-18
3.747112503064342e-18
1.7848594172864262e-18
9.393747595992884e-19
4.247904415684072e-19
9.832240103711973e-20
9.669611405370907e-20
4.873543462952231e-19
5.168283267401796e-19
4.38377924083474e-19
7.461546856175838e-19
2.333698768360643e-18
6.481716267024752e-18
1.5852574389278046e-17
3.7380087857461657e-17
8.856811389253606e-17
2.1117211438163588e-16
5.021353535308816e-16
1.1847341552363018e-15
2.771284417345858e-15
6.429259293674302e-15
1.479051072690498e-14
3.371051275043633e-14
7.603104678268175e-14
1.6948609683574773e-13
3.7298593194153e-13
8.094314010285995e-13
1.730296983502703e-12
3.639600958255063e-12
7.525717440051311e-12
1.5283185310270247e-11
3.0458839002594425e-11
5.953328088736664e-11
1.140539462924544e-10
2.1406537236977693e-10
3.9340914263046246e-10
7.075165783283012e-10
1.2441363833937351e-09
2.136766507437655e-09
3.579069892899152e-09
5.8360611935882085e-09
9.244760726920926e-09
1.419496744323789e-08
2.1083120866864324e-08
3.0243219665004795e-08
4.1880962820417694e-08
5.6066411723809316e-08
7.286072138169617e-08
9.263750123183256e-08
1.1658535037116695e-07
1.4725001635296263e-07
1.8885408968084663e-07
2.4714296464749113e-07
3.287917587752664e-07
4.410397464939841e-07
5.930876598537002e-07
8.015606638435862e-07
1.1025102001686927e-06
1.5715457886633708e-06
2.35158140615215e-06
3.684620583115086e-06
5.9406800397815165e-06
9.634279442421894e-06
1.5417794205321305e-05
2.4042062788213693e-05
3.6278369479191255e-05
5.280237944058684e-05
7.404940329842339e-05
0.00010006037218778922
0.00013034696966367188
0.00016380948296643982
0.00019873896481975432
0.00023292425650406283
0.00026386483130008237
0.00028906598217796604
0.000306369955538574
0.00031426238954478135
0.000312093270346439
0.00030016700995965425
0.0002796837313808276
0.00025254601806814917
0.00022107333806596993
0.0001876826814487688
0.00015459512115049986
0.0001236152198156929
9.600852614817302e-05
7.247869176636048e-05
5.322626580353773e-05
3.805989270549509e-05
2.652831329686692e-05
1.8046520012483015e-05
1.199847173295667e-05
7.808613167923732e-06
4.982574918553978e-06
3.122611041081244e-06
1.9254843149240266e-06
1.1703257028742067e-06
7.024562791213337e-07
4.1716743846285294e-07
2.456273413696344e-07
1.4372036513095184e-07
8.378533184446042e-08
4.8807281356511365e-08
2.84960701374426e-08
1.6722568042441434e-08
9.885464301293346e-09
5.893382721727852e-09
3.542745913113318e-09
2.144510942806864e-09
1.3042731361241706e-09
7.949973208254918e-10
4.8452184622293e-10
2.9475057706075265e-10
1.7879719326259068e-10
1.0812752026164869e-10
6.521857227254687e-11
3.926975746398429e-11
2.3631478713587993e-11
1.422849879769881e-11
8.579285938018752e-12
5.182973181085407e-12
3.1371816195995126e-12
1.9016363149162263e-12
1.1534641133520017e-12
6.99565282494627e-13
4.2406761571387205e-13
2.570665020954183e-13
1.561236253289038e-13
9.533154066181772e-14
5.882702084983374e-14
3.690807695215487e-14
2.3677067024283377e-14
1.5587412053979586e-14
1.0535871102054718e-14
7.292690718723646e-15
5.146021062108091e-15
3.6839801337233e-15
2.664803499755261e-15
1.942133172954463e-15
1.4235330194342498e-15
1.0480524958407572e-15
7.741246417896092e-16
5.728052614259568e-16
4.237210178646711e-16
3.124516584597582e-16
2.287595501593957e-16
1.6537752578870007e-16
1.1717560067738082e-16
8.057055821118517e-17
5.307706527021291e-17
3.293984060663317e-17
1.8827430517302875e-17
9.597933839007931e-18
4.1577373128369224e-18
1.4252591397719136e-18
3.890558419933395e-19
2.240510066967039e-19
4.124354102994129e-19
8.151564390191301e-19
1.6580270925516207e-18
3.4286090457424303e-18
6.7160416511832505e-18
1.2053768678506694e-17
1.983445292450763e-17
3.0352002926996917e-17
4.3988383041367243e-17
6.150893981877522e-17
8.436936189367655e-17
1.148827043330888e-16
1.5606129182346683e-16
2.109542900096252e-16
2.813698064205235e-16
3.660259130830973e-16
4.584422908104276e-16
5.452797132712546e-16
6.063575357642934e-16
6.182002639997566e-16
5.636109781434548e-16
4.503095291690075e-16
3.4189415651755446e-16
4.039756354935946e-16
9.668851053177434e-16
2.603413107365009e-15
6.2152331465357205e-15
1.3115028539145313e-14
2.508388568290241e-14
4.4378371573317946e-14
7.36665871421381e-14
1.15905445354703e-13
1.742749939767989e-13
2.5256076136914053e-13
3.5705987591405247e-13
5.027293352734677e-13
7.30116596461436e-13
1.148232530099503e-12
2.0373415448711785e-12
4.0853365189087664e-12
8.912241614223285e-12
2.01964419744766e-11
4.601790528494417e-11
1.0358456783810901e-10
2.2847436920156018e-10
4.921471297457125e-10
1.0340696999377504e-09
2.1186972569229815e-09
4.233019029648977e-09
8.247340591113147e-09
1.5669659965541778e-08
2.9030394795127644e-08
5.243556431428939e-08
9.23170239757926e-08
1.583806130503489e-07
2.6469986985019104e-07
4.30820618566281e-07
6.826351156732041e-07
1.0526724423133756e-06
1.5793707418023e-06
2.3048982531598233e-06
3.2712292397109186e-06
4.514495007694732e-06
6.058108824850406e-06
7.905721897047399e-06
1.0035538175762965e-05
1.239767561765547e-05
1.4915903665211207e-05
1.7494127122858104e-05
2.0026571105870248e-05
2.2409176299290123e-05
2.454887785515668e-05
2.6367853960015345e-05
2.7801803636058948e-05
2.8794512051319076e-05
2.9294266271433763e-05
2.9259411287108868e-05
2.8678863920603752e-05
2.7608049841711586e-05
2.621250928044548e-05
2.480319363048806e-05
2.3843195941764914e-05
2.3908744325642512e-05
2.559876745063956e-05
2.94046648356222e-05
3.556926581849842e-05
4.3974274922072943e-05
5.409348121429277e-05
6.503376501957773e-05
7.566185342566154e-05
8.479001282918806e-05
9.137705579501107e-05
9.469775150236505e-05
9.444435862591723e-05
9.074398788922968e-05
8.409759807087798e-05
7.526374480477096e-05
6.511860914151472e-05
5.4522827092497177e-05
4.4217651136490294e-05
3.476180487641273e-05
2.650965030630999e-05
1.9623383791036232e-05
1.4107848835752151e-05
9.85592715616503e-06
6.694358145244067e-06
4.423030646998268e-06
2.8442104218929034e-06
1.7810543836959026e-06
1.086735843318299e-06
6.465085356654383e-07
3.7524011179116143e-07
2.1262180289331002e-07
1.1768702632851844e-07
6.36634866758864e-08
3.3671346425692444e-08
1.7416827988532078e-08
8.814046195591123e-09
4.367252993445693e-09
2.1222200054522036e-09
1.01461480087381e-09
4.796771464366375e-10
2.2573295976080641e-10
1.0640284017634099e-10
5.0372169844022554e-11
2.3854098726656265e-11
1.1168645636678339e-11
5.0801755184039856e-12
2.1991170157557566e-12
8.865883777390175e-13
3.2595193705321336e-13
1.0776449530680548e-13
3.2933910922848136e-14
1.1167860812710786e-14
5.792798000843077e-15
4.181237715427219e-15
3.0458414280710043e-15
1.9870468290199744e-15
1.1448374423352438e-15
5.864959357308906e-16
2.689280783490218e-16
1.1083112947923716e-16
4.135175613687247e-17
1.436025596083411e-17
5.0663456854264696e-18
2.1518842983838084e-18
1.1821202508551643e-18
6.96990640640186e-19
4.094379005780345e-19
3.6885955302342504e-19
6.665806141364196e-19
3.5696669142114916e-19
5.065294369196567e-20
1.0329427480773594e-19
7.762834127189799e-19
2.1999867703909468e-18
4.97773934679078e-18
1.1437222773764614e-17
2.790725178371853e-17
6.962740905786911e-17
1.7243923735275604e-16
4.2126692863982014e-16
1.0185732852321735e-15
2.4447047465123347e-15
5.825425800080328e-15
1.3761723386699466e-14
3.217765136795864e-14
7.43692523733809e-14
1.6970939088874202e-13
3.8197064374092475e-13
8.470251551993374e-13
1.848560920679273e-12
3.9663186306895466e-12
8.35860896133481e-12
1.7285690422189636e-11
3.505059231170754e-11
6.963636694598895e-11
1.3545513764777976e-10
2.577791886386207e-10
4.795444455558232e-10
8.711816403913263e-10
1.5437282350832591e-09
2.664420930579783e-09
4.472044813206575e-09
7.286694792815976e-09
1.1506357789754786e-08
1.7583206696640582e-08
2.597896148465918e-08
3.711324959774988e-08
5.1338768516993646e-08
6.899058048469561e-08
9.054409629570099e-08
1.1685918142885827e-07
1.4939141477671935e-07
1.901672930362108e-07
2.4135087788679387e-07
3.0449403877453935e-07
3.801178913518046e-07
4.690241562581287e-07
5.773951515252601e-07
7.278965231190063e-07
9.782771447387846e-07
1.44723636473259e-06
2.344821669637992e-06
4.001850862915618e-06
6.890461671675289e-06
1.1626457765068397e-05
1.894411339538792e-05
2.9635964748476825e-05
4.4454341602602716e-05
6.397834277425244e-05
8.845940485147511e-05
0.00011766915254627859
0.00015078200691526526
0.0001863282545027893
0.00022224748509938895
0.00025605613073020157
0.0002851184113492685
0.00030698309263103526
0.00031972707167158074
0.00032223840818474786
0.00031438006245663227
0.0002970000373082847
0.0002717873905081312
0.00024100713281070891
0.00020717101289830444
0.00017270963401238502
0.00013970339118202517
0.00010970942142637077
8.369619708729251e-05
6.207398659304027e-05
4.479358056621017e-05
3.1479619767758274e-05
2.1567593894849876e-05
1.4422052487894036e-05
9.424094026139288e-06
6.0256923688790525e-06
3.7750728713722765e-06
2.3206993856692148e-06
1.4020008660597072e-06
8.337470493565194e-07
4.889906011271412e-07
2.8348805966992387e-07
1.6291495728881386e-07
9.313180056068867e-08
5.3182306324806004e-08
3.047879491393834e-08
1.7611441056590602e-08
1.0298817343335701e-08
6.107476474944389e-09
3.672356194162073e-09
2.2338425040515234e-09
1.3695932247528176e-09
8.428913995693866e-10
5.187677112055728e-10
3.1840566388719466e-10
1.945717039632583e-10
1.1831631196442674e-10
7.162608664110107e-11
4.321895100973038e-11
2.603572551024644e-11
1.5687304922376345e-11
9.469941873819433e-12
5.7350002456558504e-12
3.486733557367375e-12
2.128294708231071e-12
1.3036502577401244e-12
8.007043549530174e-13
4.928078733534799e-13
3.038966522546547e-13
1.8791586669127623e-13
1.167400418479187e-13
7.30747874838405e-14
4.625162879389455e-14
2.969898883673609e-14
1.939221492374281e-14
1.2887073444126843e-14
8.71111982881829e-15
5.9809729184940654e-15
4.164790709923543e-15
2.938114162617445e-15
2.09866093323921e-15
1.5171153462535944e-15
1.108991429737369e-15
8.1833132405116e-16
6.078792052154066e-16
4.528327782814189e-16
3.3669351114926474e-16
2.4846459142031907e-16
1.8077429391947803e-16
1.2863967546810283e-16
8.865391398643968e-17
5.843603997755114e-17
3.623832692377004e-17
2.065875082425907e-17
1.0443894175842288e-17
4.385289851253099e-18
1.3097001457862273e-18
1.47433500465926e-19
4.2570871133754597e-20
4.556048213277726e-19
1.2103843320509141e-18
2.455767152477597e-18
4.543805703176451e-18
7.861061080091716e-18
1.2675894328783829e-17
1.907201810732841e-17
2.7021647820501048e-17
3.66110182457449e-17
4.83736450629568e-17
6.362401045201786e-17
8.463097667350417e-17
1.1444291398041e-16
1.5619349875171885e-16
2.1179727500013574e-16
2.801049764636123e-16
3.548431674375265e-16
4.230144697425212e-16
4.648721027862937e-16
4.57072898388027e-16
3.8109307641243783e-16
2.3935229627438306e-16
8.15567660668071e-17
4.326524051380333e-17
3.9719777237122726e-16
1.6148058734431034e-15
4.4304812365395275e-15
9.892964657684364e-15
1.93779858193384e-14
3.4524259722290364e-14
5.70464567935364e-14
8.838675797856465e-14
1.2922443119640798e-13
1.7905215634349687e-13
2.365422286202274e-13
3.0270889605723624e-13
3.919039274985794e-13
5.625409207023872e-13
9.943856409934839e-13
2.170667995208756e-12
5.287121700318997e-12
1.313554468694278e-11
3.194791461673785e-11
7.512460898777823e-11
1.705437274284596e-10
3.7446108446255366e-10
7.971374647230453e-10
1.648596084413316e-09
3.317612246866358e-09
6.503252219763274e-09
1.2425571063948306e-08
2.3149040972245537e-08
4.205602101185139e-08
7.450334595542328e-08
1.286764229990274e-07
2.166149788122216e-07
3.553176319284678e-07
5.677396532016601e-07
8.83391508461576e-07
1.3381519823993983e-06
1.9728709688261493e-06
2.830403554823673e-06
3.950930593562473e-06
5.365790505441721e-06
7.090523364154079e-06
9.118290565890926e-06
1.1415102807484014e-05
1.3918180792432143e-05
1.6538182006060505e-05
1.9165022650982137e-05
2.1675906865070558e-05
2.3943440115524616e-05
2.5841875045770447e-05
2.725090156590959e-05
2.8058714103929063e-05
2.8168477369833298e-05
2.7513386404779676e-05
2.6083929397547733e-05
2.396615842930771e-05
2.138266204685334e-05
1.872104009558119e-05
1.6531486105842694e-05
1.5478592418524156e-05
1.6243564606469417e-05
1.9389285331774284e-05
2.5216753889714575e-05
3.3650846557481225e-05
4.419120492247713e-05
5.594952951352065e-05
6.777169278933103e-05
7.841948328928013e-05
8.677054263198856e-05
9.199144064055071e-05
9.36483196674134e-05
9.173795745400213e-05
8.664273759005418e-05
7.902947830736472e-05
6.972050530230318e-05
5.9565246992617985e-05
4.9334129855463316e-05
3.9647012413257734e-05
3.0938956728539194e-05
2.3458867588608626e-05
1.729226265665529e-05
1.2398038320714282e-05
8.649891578139282e-06
5.875193593311296e-06
3.88678008523665e-06
2.505690321479039e-06
1.5749322299423784e-06
9.656834907532835e-07
5.779603707385036e-07
3.3783687570126785e-07
1.9297993555343394e-07
1.0778354300413188e-07
5.8892393694297566e-08
3.1497748375405645e-08
1.650179090686542e-08
8.477997701066925e-09
4.278808117055401e-09
2.1269165853149857e-09
1.0448969338817086e-09
5.092476818394511e-10
2.469329407034565e-10
1.191782832172865e-10
5.7051340021296874e-11
2.6880437203410028e-11
1.2330101723783121e-11
5.4395835587567866e-12
2.28304746380126e-12
9.067614038912637e-13
3.440121443604426e-13
1.3014207806977898e-13
5.3842984959275554e-14
2.6626856148308984e-14
1.5344510416304372e-14
9.238924404336995e-15
5.3422915534579765e-15
2.8524892519320644e-15
1.3831701810013727e-15
6.025006320120871e-16
2.3257071493495425e-16
7.789107272250496e-17
2.203023432723925e-17
5.4114561498989155e-18
1.7891487366295523e-18
1.3558904403462462e-18
1.237190568439781e-18
1.0267419280950756e-18
8.50158916564583e-19
1.2306386546468446e-18
5.842832596510617e-19
1.886648785426876e-19
1.9828099799180253e-19
4.909709951720422e-19
8.550523481920099e-19
1.425934079068504e-18
3.1198531257512797e-18
8.281756496083154e-18
2.2276776834097632e-17
5.764852355044317e-17
1.4509738132966532e-16
3.6146690171335067e-16
8.97681100932417e-16
2.2194048494604247e-15
5.443526888756612e-15
1.321248365320361e-14
3.1694933141402576e-14
7.507816098893227e-14
1.75446819277909e-13
4.040285058496482e-13
9.15822086463902e-13
2.041030605408453e-12
4.467476969876005e-12
9.594385313829196e-12
2.019802963528573e-11
4.1643734789406235e-11
8.401434143789503e-11
1.656989952201883e-10
3.19165391079881e-10
5.997343997132893e-10
1.0980144183080009e-09
1.955973932546316e-09
3.38517191193511e-09
5.683396888497194e-09
9.243485898644216e-09
1.4546999626878534e-08
2.2138149721746948e-08
3.258178612759064e-08
4.642181769075685e-08
6.416511220202603e-08
8.630628293594286e-08
1.133678168769038e-07
1.458629268962896e-07
1.8403738124298368e-07
2.2729411752795685e-07
2.7344477385687086e-07
3.184058601985113e-07
3.575783266833255e-07
3.906779449967297e-07
4.31888665704402e-07
5.266145974726576e-07
7.74740526537821e-07
1.3583777086105215e-06
2.5699532620237483e-06
4.834578921903976e-06
8.719163214863097e-06
1.4919902898290937e-05
2.421997056631706e-05
3.7411146551973605e-05
5.517782509486854e-05
7.794993893960767e-05
0.00010574238934140768
0.0001380101858372109
0.00017355659858722688
0.0002105315559924572
0.0002465460728453873
0.0002789058945503221
0.00030493839618330615
0.00032235923198659983
0.00032960840542600316
0.00032608598166088327
0.000312236981487793
0.0002894682773717928
0.00025991805483338077
0.00022612973302936975
0.00019069871210294694
0.0001559586354201187
0.00012375651451989624
9.533985444478344e-05
7.135213221095288e-05
5.1912558034348616e-05
3.674569455614218e-05
2.5326297065044497e-05
1.701198361655841e-05
1.114714043483101e-05
7.132170939619599e-06
4.4603774612142375e-06
2.7294787932094335e-06
1.6362816481906695e-06
9.622867476210617e-07
5.561225021597876e-07
3.165627183512187e-07
1.7805506198506247e-07
9.939006621479415e-08
5.537278092002896e-08
3.1002058625935895e-08
1.7569998528090077e-08
1.0142283046084065e-08
5.984106508254207e-09
3.607682930283707e-09
2.2137202510247913e-09
1.374088104780595e-09
8.571092605850256e-10
5.342202845609733e-10
3.313656851782678e-10
2.040853570106087e-10
1.2472492789493905e-10
7.568971658016035e-11
4.5689730457154114e-11
2.7502006728646574e-11
1.6553747688380877e-11
9.99126780777562e-12
6.061047441635179e-12
3.701147449333276e-12
2.276176575385564e-12
1.4091328922429534e-12
8.771424494045319e-13
5.482190276126975e-13
3.436445772740443e-13
2.1593652234353652e-13
1.3607096484495681e-13
8.608808453872469e-14
5.47785693318729e-14
3.5121845686357274e-14
2.2726782152366793e-14
1.4859029828511292e-14
9.823967952125574e-15
6.573458384598655e-15
4.4572221347174836e-15
3.0682786971885112e-15
2.1487252215703284e-15
1.5331306878949848e-15
1.1145768923611079e-15
8.239342189384656e-16
6.167905262579262e-16
4.649062596264904e-16
3.505014597914426e-16
2.6243399583644985e-16
1.9369026774075773e-16
1.3978216759557363e-16
9.774475423578728e-17
6.551027349526773e-17
4.1509014461352875e-17
2.44119145609835e-17
1.2976398927994125e-17
5.981657633189431e-18
2.243813086731577e-18
6.914964284106167e-19
4.676491147486239e-19
1.0138264639763264e-18
2.0963703405194918e-18
3.751997217240096e-18
6.159951457170969e-18
9.480041745559965e-18
1.371934469315403e-17
1.869513895698263e-17
2.414230636166475e-17
2.9970998887785375e-17
3.6622316414153856e-17
4.5408764618791727e-17
5.867831539607199e-17
7.962318731811088e-17
1.1158360725271306e-16
1.5678684968678542e-16
2.1462200748943428e-16
2.7978323110873497e-16
3.409112593622382e-16
3.807067664203194e-16
3.788484538604355e-16
3.19375305928161e-16
2.044069876795827e-16
7.604440826272824e-17
4.7784360871652363e-17
3.4542491612513604e-16
1.354675417306979e-15
3.667777039721106e-15
8.113561409261835e-15
1.5743912147981e-14
2.7734878606293073e-14
4.514574125179182e-14
6.84740118932103e-14
9.697523843423533e-14
1.2784954209007464e-13
1.5578773321508128e-13
1.7437106770622275e-13
1.831981322907987e-13
2.0998404329010979e-13
3.6852016288145504e-13
9.977446842868749e-13
2.9765323522352086e-12
8.405774012424628e-12
2.2034036853556563e-11
5.4143991452502604e-11
1.262248201391584e-10
2.818002162593759e-10
6.065004702971324e-10
1.264158911677071e-09
2.5596841203999966e-09
5.044894542816245e-09
9.690220677788545e-09
1.8152260478416166e-08
3.3172484259794385e-08
5.9142157447694395e-08
1.028572714204018e-07
1.7445831574675594e-07
2.8849714284732245e-07
4.649949188245118e-07
7.302573841924385e-07
1.117114923261369e-06
1.6641879792998882e-06
2.4137864402244667e-06
3.4081772509182914e-06
4.684220278131228e-06
6.266758618581361e-06
8.161577891537836e-06
1.0349086138974616e-05
1.2779956648792107e-05
1.5373708266663394e-05
1.802058134321821e-05
2.0586290005687056e-05
2.291864510262812e-05
2.485504722315368e-05
2.6230683365266048e-05
2.6888766803454104e-05
2.669565965466786e-05
2.5564131347556435e-05
2.348627424688935e-05
2.0573315346606064e-05
1.7093552137646707e-05
1.3494092326398415e-05
1.0389987340863685e-05
8.50828040955428e-06
8.585095131759974e-06
1.1228947559893066e-05
1.6778101980321144e-05
2.5188112512348237e-05
3.5983275426240575e-05
4.829184360814347e-05
6.096330489150969e-05
7.27438510613651e-05
8.24708864569428e-05
8.924395907223608e-05
9.253826453717395e-05
9.224395717314653e-05
8.863362359702965e-05
8.227549330525432e-05
7.391778473148206e-05
6.436966437495356e-05
5.439871782692877e-05
4.465667979394213e-05
3.5637181916583974e-05
2.766311569202132e-05
2.0897421492953316e-05
1.536950262693031e-05
1.100950498152074e-05
7.68384075024587e-06
5.227082054962704e-06
3.467299134984919e-06
2.2437343868810682e-06
1.4171440627317968e-06
8.740747112922805e-07
5.267643476500324e-07
3.1036088992197215e-07
1.7887848351090433e-07
1.0091677840954307e-07
5.576903190191227e-08
3.02155852828583e-08
1.6068832495730545e-08
8.401032870125508e-09
4.326581732392127e-09
2.199975240103232e-09
1.1068612107123874e-09
5.517582249112845e-10
2.724194313188004e-10
1.3287152807450104e-10
6.371241646520833e-11
2.984527139941274e-11
1.3573357196055246e-11
5.970645759559867e-12
2.5459630778578544e-12
1.0667487788698825e-12
4.525936603301325e-13
2.0291416097054198e-13
9.908949371699005e-14
5.2123222384984036e-14
2.821446519381299e-14
1.496724661096168e-14
7.510602877274847e-15
3.4804157012295323e-15
1.4588142244199241e-15
5.384988151257507e-16
1.6700903132544092e-16
3.918333967375438e-17
5.082992418281123e-18
3.0517605973999737e-19
1.5314103599543821e-18
2.4346014531110093e-18
2.3877792090760635e-18
1.8872084736559634e-18
2.9512280636507848e-18
1.5621102397737183e-18
8.073405566612193e-19
5.566103566769718e-19
4.6918304807315515e-19
3.3608153251331957e-19
2.667041687467807e-19
6.74240853361387e-19
2.3924117182716447e-18
7.165672167507695e-18
1.900419206900315e-17
4.8312714443626875e-17
1.2321286956929857e-16
3.174418276507021e-16
8.176026222941634e-16
2.0870253076729948e-15
5.2643514644947955e-15
1.3117966640236102e-14
3.2285641552489094e-14
7.842059017710865e-14
1.8776103514762518e-13
4.4255030914553846e-13
1.0255362342550627e-12
2.333789172550223e-12
5.2098088185711435e-12
1.1396792466179306e-11
2.440653102507137e-11
5.111536610283452e-11
1.0458331677901698e-10
2.0881112636095664e-10
4.0635107578511634e-10
7.697326097681856e-10
1.417316228595131e-09
2.533149301467175e-09
4.3884621578140405e-09
7.359816458099311e-09
1.19365667662529e-08
1.870997899696591e-08
2.8339757939328155e-08
4.1500445213081515e-08
5.881520888492856e-08
8.077834564304575e-08
1.0764179738007056e-07
1.3920044844787445e-07
1.7438943653494899e-07
2.1066820810524006e-07
2.4338056420040136e-07
2.656707398765809e-07
2.7002297830662046e-07
2.528786952118628e-07
2.2381787222584372e-07
2.2028617206811638e-07
3.2780867427887356e-07
7.042559427596766e-07
1.605290386303901e-06
3.4067734179353867e-06
6.618603150839982e-06
1.1883071851997935e-05
1.9949589835428395e-05
3.161737994383435e-05
4.76399918820388e-05
6.859172031935396e-05
9.470668276989837e-05
0.00012571479567496585
0.00016071118277954916
0.0001981012035871577
0.00023565743805159078
0.00027070579257048737
0.0003004283510090993
0.00032223833163422765
0.00033415769233268415
0.00033511959097094795
0.00032513032368366903
0.00030525601239234594
0.0002774394875083825
0.00024419067204780465
0.00020821858324957025
0.00017207884936302204
0.0001378978082074161
0.00010720877039239005
8.090668277431413e-05
5.930255373189384e-05
4.224395871788428e-05
2.9264113994590212e-05
1.9727347381035557e-05
1.2949368514630389e-05
8.282415724335012e-06
5.165055109036604e-06
3.1426224506968156e-06
1.8669501509394702e-06
1.0839387195151376e-06
6.158687496591142e-07
3.4314175794678543e-07
1.8808880194847378e-07
1.0193501463524998e-07
5.5021236254288326e-08
2.9869901934937014e-08
1.6495678076074442e-08
9.364834124417098e-09
5.499239097016677e-09
3.3380213941319506e-09
2.0795839773586294e-09
1.3158063012200063e-09
8.36702961070328e-10
5.302805053163602e-10
3.3315343451253526e-10
2.0692500222527514e-10
1.2699986369650798e-10
7.711960712480431e-11
4.645514481536664e-11
2.7859859220741503e-11
1.6704255675712264e-11
1.0056314311225446e-11
6.101439392466076e-12
3.740310447939752e-12
2.3187816513106698e-12
1.4526516596076941e-12
9.177629087759894e-13
5.831997107067023e-13
3.7179639943410727e-13
2.3732103836662455e-13
1.5150343221804926e-13
9.670438099799173e-14
6.174219158967625e-14
3.946302462306414e-14
2.5277677799870247e-14
1.6247736267050426e-14
1.0498617919230656e-14
6.83766384113431e-15
4.506153449522416e-15
3.020201997984357e-15