# vtk DataFile Version 4.1 
COMMENT
ASCII
DATASET STRUCTURED_POINTS 
DIMENSIONS 300 300 1 
ORIGIN 0 0 0
SPACING 0.020943951023931952 0.020943951023931952 0 
POINT_DATA 90000
SCALARS U double 1
LOOKUP_TABLE default
8.817406204209534e-21
1.4540655910396233e-20
6.955473443521728e-20
1.5648818866102136e-19
3.1118505978390925e-19
7.178423017034617e-19
1.8393982320575764e-18
4.719313798273165e-18
1.1822139056696258e-17
2.9187938495655566e-17
7.160652531197886e-17
1.7483563733102042e-16
4.2446362636099267e-16
1.023976923376611e-15
2.4543289912905042e-15
5.845269236700498e-15
1.383327536906236e-14
3.253005204198235e-14
7.600749332264767e-14
1.7644092580798803e-13
4.068699410536089e-13
9.318441343247573e-13
2.119091686225028e-12
4.783285659320371e-12
1.0712330910215447e-11
2.378980662174518e-11
5.2356676522485695e-11
1.1410669797581236e-10
2.4606778197289803e-10
5.245883942865028e-10
1.104575139434114e-09
2.2948883950261725e-09
4.6998866513400625e-09
9.478565197572406e-09
1.8806306723815685e-08
3.667395868430172e-08
7.022763914436116e-08
1.319393187410561e-07
2.429934469268881e-07
4.383548903291318e-07
7.740035145099679e-07
1.3367110948654104e-06
2.256405170097668e-06
3.7205151187061576e-06
5.9886627371531425e-06
9.404666591374055e-06
1.4401258910929336e-05
2.1491564554128606e-05
3.124088331541089e-05
4.4213395968051355e-05
6.089173099837904e-05
8.157310321003039e-05
0.00010625340513677149
0.00013451864394000684
0.00016546904406341458
0.00019770224177103905
0.00022937617807389352
0.00025835913092787054
0.00028245578723910006
0.0002996786380496908
0.00030851888193029635
0.0003081655622433524
0.000298628585714449
0.0002807396871898495
0.000256030803740638
0.00022651490480819512
0.00019441324058123307
0.0001618805449474927
0.00013077486117836368
0.00010250388536631872
7.796004478585998e-05
5.7537556947062784e-05
4.121089864048839e-05
2.8647651972809154e-05
1.932937966783283e-05
1.2660028340860023e-05
8.049613273251139e-06
4.969050704881841e-06
2.97825036206088e-06
1.73325489934053e-06
9.794601027714151e-07
5.3742403123924e-07
2.862799304516846e-07
1.4800417209848335e-07
7.422118944870147e-08
3.6072684122198975e-08
1.697076431197761e-08
7.717325583601487e-09
3.3879007019006266e-09
1.436055062822955e-09
5.904579457875749e-10
2.3917058993199966e-10
9.90513816501177e-11
4.4771352056174866e-11
2.362466961552555e-11
1.4729576759959775e-11
1.0346016540192722e-11
7.775102996661202e-12
6.085194204056918e-12
4.9080987680747374e-12
4.0508235527241605e-12
3.3905474598654096e-12
2.8494055073197143e-12
2.3837774417252837e-12
1.9736704277733482e-12
1.6124189148472103e-12
1.298762870867398e-12
1.0320654122614142e-12
8.102254061601188e-13
6.2935311287817e-13
4.843129192111068e-13
3.6949768593631175e-13
2.7948500789140755e-13
2.0944655711657768e-13
1.5531673722463935e-13
1.1378844469850404e-13
8.22152140303617e-14
5.848354482963614e-14
4.0894625309026797e-14
2.8072127330103257e-14
1.8897309135763573e-14
1.2464964475301086e-14
8.05199724086435e-15
5.092012403045685e-15
3.152062200039845e-15
1.9101447703401776e-15
1.1336139327548439e-15
6.593009239095412e-16
3.7614087567974273e-16
2.1076768789303022e-16
1.161483900557902e-16
6.301736727856157e-17
3.3690063939018443e-17
1.777302246797358e-17
9.305884646104828e-18
4.933767126008782e-18
2.7872623409226883e-18
1.8253868146953756e-18
1.465760241573962e-18
1.382896638603661e-18
1.3990929984366132e-18
1.423738432904666e-18
1.417524545052709e-18
1.3702078798602289e-18
1.2867435878515976e-18
1.1791527437939253e-18
1.0623029860638382e-18
9.520942396028428e-19
8.649109401912249e-19
8.177218499532071e-19
8.28747437117612e-19
9.19019873462335e-19
1.1153566066044815e-18
1.4552599312948468e-18
1.9940751737594606e-18
2.814396706063439e-18
4.037167294407784e-18
5.833120262496611e-18
8.432166698911956e-18
1.212716724545717e-17
1.726757677133534e-17
2.4238215078957518e-17
3.341946158874114e-17
4.5127896484208e-17
5.954078641848894e-17
7.661322090405516e-17
9.600209209820584e-17
1.1701571491587374e-16
1.3861283139125263e-16
1.594859224301151e-16
1.7829686315729217e-16
1.942229470061975e-16
2.0819168699094786e-16
2.2568824466411974e-16
2.6314264891029307e-16
3.62379294170112e-16
6.230868678854582e-16
1.2754778455141868e-15
2.842738795076881e-15
6.5047688058215154e-15
1.4914460278801516e-14
3.4032384030160236e-14
7.72491959529986e-14
1.7462158881965315e-13
3.9344298675007005e-13
8.83645542799516e-13
1.9767890980216303e-12
4.398615605902209e-12
9.717280476046149e-12
2.1269252987345002e-11
4.602844025403856e-11
9.828569388641554e-11
2.066980721112714e-10
4.2740641172630387e-10
8.676980687724987e-10
1.7272999473409816e-09
3.367927318329065e-09
6.426040792791107e-09
1.1988243322341421e-08
2.185196188898091e-08
3.889353135295759e-08
6.755793468060015e-08
1.1446491806129786e-07
1.8909102368268538e-07
3.044346683272458e-07
4.77505250163806e-07
7.2940879628911e-07
1.0847527194760506e-06
1.5700896904626753e-06
2.211196358638616e-06
3.0291587817116208e-06
4.0355123749505285e-06
5.227024266049376e-06
6.581034857798728e-06
8.052487954136209e-06
9.573766196278019e-06
1.1058137118677178e-05
1.2407005577525651e-05
1.3520358748116064e-05
1.4308967686229395e-05
1.470630639901049e-05
1.4677969948532036e-05
1.4226719617521678e-05
1.3392107657676364e-05
1.2244740112688851e-05
1.0876334473166549e-05
9.387529517925249e-06
7.875710571520801e-06
6.4248800985761185e-06
5.09894334314866e-06
3.938910995937249e-06
2.963691734925398e-06
2.173551367541507e-06
1.555046315053759e-06
1.0862841331431653e-06
7.416308577338087e-07
4.953501702438206e-07
3.2401033307255503e-07
2.0775839477336996e-07
1.307104423357818e-07
8.075216733212125e-08
4.90169552050808e-08
2.9244849173150577e-08
1.7154235607347146e-08
9.896821451561018e-09
5.6224920493141104e-09
3.1535295269779313e-09
1.7535003875380113e-09
9.705132147032342e-10
5.342206360583139e-10
2.888128360016922e-10
1.4883577015108234e-10
6.95553526041364e-11
2.7471460976058743e-11
8.698978669361445e-12
3.405308341634062e-12
4.185157896164742e-12
6.1390899704567265e-12
6.9712903424425965e-12
6.4207633087800675e-12
5.224051060236612e-12
4.1633229486859054e-12
3.5864937622678193e-12
3.4119763264978836e-12
3.3755162442078883e-12
3.260237330085866e-12
2.9881290454158333e-12
2.592084057908059e-12
2.1460686082575195e-12
1.7132263276133718e-12
1.3285048719894497e-12
1.003852321991574e-12
7.391126899052694e-13
5.295180759977473e-13
3.6870454188094697e-13
2.494664966004501e-13
1.641297358680461e-13
1.0513322341352493e-13
6.565458611227967e-14
4.00231278390099e-14
2.3842645207270927e-14
1.3893935145979363e-14
7.927677187294473e-15
4.4336183700769344e-15
2.4329329842478264e-15
1.3114357486487953e-15
6.951814894832228e-16
3.627969731550323e-16
1.8659824363120066e-16
9.468724249943812e-17
4.745914529337592e-17
2.3526981744602382e-17
1.1547452648697255e-17
5.6092542346394186e-18
2.6916770034692702e-18
1.280415205972386e-18
6.176754219260767e-19
3.1120518621377033e-19
1.5493071296277753e-19
5.903092498536744e-20
4.4264163275188037e-20
3.5518707179986123e-20
4.3438123797601364e-20
4.4922971816716164e-20
5.411257227683996e-20
1.3698687062440109e-19
4.164887077612727e-19
1.132116272194137e-18
2.876020219117257e-18
7.210324252766945e-18
1.812025443760223e-17
4.547643052976375e-17
1.1346184923086314e-16
2.8110393935109515e-16
6.918669828259888e-16
1.6924012099979433e-15
4.11495516746165e-15
9.944941121773659e-15
2.3889111260046403e-14
5.703500748712303e-14
1.3533046678146138e-13
3.190836455517246e-13
7.474378756573961e-13
1.7388861487899394e-12
4.016131782176223e-12
9.203400211605122e-12
2.0912285351382634e-11
4.707882656486461e-11
1.0491394034167971e-10
2.312061092694156e-10
5.033518247016978e-10
1.081387136853024e-09
2.290090255885193e-09
4.775440336092939e-09
9.794941147556204e-09
1.9741143921914988e-08
3.9057061558680174e-08
7.578453893444563e-08
1.4409055052034224e-07
2.68229682046552e-07
4.884931609316896e-07
8.697086137898523e-07
1.5127018340499574e-06
2.5686978021121518e-06
4.25580641345086e-06
6.8754399988642e-06
1.0824800117585856e-05
1.659971809322904e-05
2.4780681663615887e-05
3.599463363499058e-05
5.084699780730129e-05
6.982306788770781e-05
9.316542764436256e-05
0.00012074343148493248
0.00015193972070652936
0.00018558414047145083
0.00021996409601556817
0.000252930426892525
0.0002820998067323215
0.00030513199645634765
0.0003200389193792522
0.00032546914875359294
0.0003209110760928852
0.00030677219711687845
0.00028431753579221807
0.00025548042372194397
0.00022258534978020954
0.00018803836220705465
0.00015404205421023085
0.00012238043105880449
9.429857204320282e-05
7.047938249803756e-05
5.110085271237275e-05
3.594592251037426e-05
2.4534279081832282e-05
1.6249709328662955e-05
1.0445080307704337e-05
6.516503237269383e-06
3.946318854471591e-06
2.3199270292079776e-06
1.3239672748644194e-06
7.334923538790815e-07
3.9445045278467215e-07
2.058680923204668e-07
1.0424582440965192e-07
5.1196021037395784e-08
2.4376113229006626e-08
1.1251712313049133e-08
5.039447341884295e-09
2.1968587609513963e-09
9.392239304526286e-10
3.9994094294871e-10
1.7416292094016038e-10
8.035077028766408e-11
4.0531654332318466e-11
2.2615835981108515e-11
1.3846339018571017e-11
9.195737310707051e-12
6.5903734613456035e-12
5.072846963545447e-12
4.139378791308974e-12
3.5061568956363087e-12
3.0169961142542525e-12
2.594714682908311e-12
2.208654654476875e-12
1.8521229938414058e-12
1.5279765093563505e-12
1.2406501722644324e-12
9.926562333187557e-13
7.837431862056275e-13
6.113516657256564e-13
4.714971445129549e-13
3.5961262522526537e-13
2.7116138130549125e-13
2.0199275976072727e-13
1.4849204532025217e-13
1.0759804908857282e-13
7.675416615749402e-14
5.3838367601370066e-14
3.709659385754578e-14
2.508817448479248e-14
1.6642769194274983e-14
1.0824856053262935e-14
6.9018880261761484e-15
4.313859953063626e-15
2.6437534809337303e-15
1.589461235958696e-15
9.382012693928896e-16
5.442986255262386e-16
3.1080578706644026e-16
1.7498826929459045e-16
9.735214293525199e-17
5.368414237680942e-17
2.9501039669710006e-17
1.6325793524722995e-17
9.283170727072242e-18
5.6049606822895e-18
3.7335121457096555e-18
2.800410785436499e-18
2.329391004859371e-18
2.067687907530111e-18
1.8890120324641142e-18
1.7366297329979203e-18
1.5898718596973137e-18
1.4451345930768085e-18
1.3060426494457196e-18
1.179110094830517e-18
1.0722628583518472e-18
9.94524355327521e-19
9.560716650045288e-19
9.686139856042714e-19
1.0465139976321563e-18
1.2092513806270048e-18
1.4857784732273635e-18
1.9211127707221253e-18
2.585172811878471e-18
3.5833535981648635e-18
5.06758959776359e-18
7.24564830052924e-18
1.0385240942697331e-17
1.480850974264975e-17
2.0871990599673602e-17
2.8927743067466145e-17
3.9263327431673294e-17
5.2021674124064535e-17
6.710614268305981e-17
8.408040460283535e-17
1.0207673308386044e-16
1.197310386859574e-16
1.35173809264734e-16
1.4613651426066924e-16
1.5031271477440651e-16
1.463042543537283e-16
1.3591587299154892e-16
1.2951569472117395e-16
1.5826642482218733e-16
3.0161661064991447e-16
7.48589528159443e-16
1.934037721221217e-15
4.8417414050677744e-15
1.1680032122568043e-14
2.739049972373676e-14
6.301792555509189e-14
1.4322165368180682e-13
3.229343973815373e-13
7.240094209336074e-13
1.6149365921747073e-12
3.581785247737791e-12
7.888567643569894e-12
1.7222155391127192e-11
3.719870631339826e-11
7.93376986040999e-11
1.6678260215817348e-10
3.4500199600616884e-10
7.012194272209048e-10
1.3985884273819854e-09
2.7342966051399255e-09
5.234821056346293e-09
9.80606037691899e-09
1.7959980597635723e-08
3.214074357025493e-08
5.6168946006611424e-08
9.58085575227137e-08
1.594331997016294e-07
2.587237407876633e-07
4.0926875690684544e-07
6.308707555716065e-07
9.47300434157649e-07
1.3852137172206065e-06
1.9719820539820876e-06
2.732312353200337e-06
3.6837602333875907e-06
4.83155138159337e-06
6.163465757586013e-06
7.64581813387273e-06
9.221678613029533e-06
1.0812325648682493e-05
1.2322472583541478e-05
1.364910258796056e-05
1.4692925128984559e-05
1.5370736884033762e-05
1.562654998724571e-05
1.543939854503036e-05
1.48262859003437e-05
1.3839678035018084e-05
1.2560048674857009e-05
1.1084953472228869e-05
9.516707481714777e-06
7.950831263388585e-06
6.467036143157389e-06
5.123790556083649e-06
3.956670962604012e-06
2.9799717190758e-06
2.1905792677605446e-06
1.5729589334706088e-06
1.1042171656642562e-06
7.584895159053601e-07
5.102508136215816e-07
3.3645492836374677e-07
2.1763235122337445e-07
1.3819028473703017e-07
8.618747336772322e-08
5.282460921974063e-08
3.1831806650166696e-08
1.8871072003979977e-08
1.1017625893666936e-08
6.344454013278759e-09
3.6092244099105157e-09
2.0290533550784377e-09
1.1234909496601809e-09
6.067696572810522e-10
3.142727587665981e-10
1.5297789289350853e-10
6.946953831449619e-11
3.1147916147205724e-11
1.6797005438547847e-11
1.27292901261357e-11
1.123090651973067e-11
9.23022173459767e-12
6.547018430269663e-12
4.08283897047717e-12
2.5555048653111706e-12
2.0448950034343592e-12
2.160150773944779e-12
2.419740258912927e-12
2.5192295266772425e-12
2.3853143278500958e-12
2.0886384022892883e-12
1.7329585516955865e-12
1.3909052884231021e-12
1.0928912603055166e-12
8.429487435965381e-13
6.362372693266824e-13
4.678511034223723e-13
3.3422005749010196e-13
2.3182793401546764e-13
1.563211619376712e-13
1.0266045377992699e-13
6.578106306463699e-14
4.1181402301173084e-14
2.5212477969497474e-14
1.5106679085758296e-14
8.865289415717954e-15
5.1000552902666905e-15
2.8791264018354898e-15
1.596718736818222e-15
8.70879174876893e-16
4.676412251112761e-16
2.4747943410955554e-16
1.292048859355102e-16
6.661718873606581e-17
3.3955737912606046e-17
1.7125096331670978e-17
8.550493502259047e-18
4.230960174688571e-18
2.0825107411626517e-18
1.0261831113542938e-18
5.046674446821401e-19
2.3868094600511646e-19
1.0209705194746629e-19
9.797352030439273e-20
5.885164301898533e-20
3.54964444791711e-20
1.3169890527950171e-20
2.136647500479341e-21
2.5468033866771854e-20
1.0492547209764035e-19
2.774632851618437e-19
6.745460924855105e-19
1.699004721830933e-18
4.404867729616728e-18
1.1418625911757181e-17
2.9296051783148116e-17
7.448972576572433e-17
1.8817839172334016e-16
4.727380374541928e-16
1.1809680835339404e-15
2.9333734249373557e-15
7.244454942195956e-15
1.77899571995326e-14
4.3439318037003135e-14
1.0546427569941115e-13
2.545511839448578e-13
6.106251736930161e-13
1.4552167601669547e-12
3.4434403217300653e-12
8.084638649421891e-12
1.8817361144215642e-11
4.3376732370827773e-11
9.89188902698072e-11
2.2290412792713987e-10
4.95733004006591e-10
1.086772201397981e-09
2.3456745365787258e-09
4.978858692045029e-09
1.0381070703578744e-08
2.123975251397062e-08
4.26015347179391e-08
8.368967245202983e-08
1.608862975150698e-07
3.0242773578523314e-07
5.554648149335838e-07
9.961390602163543e-07
1.7431068662643192e-06
2.9743640304660176e-06
4.9461439099694494e-06
8.011019245377397e-06
1.2630241427062501e-05
1.9373198536760155e-05
2.889541199711207e-05
4.188676028784909e-05
5.89846969724075e-05
8.06537835618109e-05
0.00010704257212250989
0.000137840019462304
0.00017216304108275325
0.00020851059482557822
0.0002448144324020261
0.0002786011086454899
0.0003072560651589834
0.0003283541412912095
0.0003399993924255589
0.0003411079477065617
0.0003315750227592145
0.0003122903035571332
0.0002849988056747316
0.0002520378120261306
0.00021600530911952017
0.00017942519900348671
0.00014446809279564812
0.00011276723715979179
8.534383938089212e-05
6.263212725734514e-05
4.4577563120292574e-05
3.077430026407182e-05
2.0609646594667994e-05
1.3391199474609803e-05
8.442830663638132e-06
5.1656460847757314e-06
3.0673987221415742e-06
1.7678907462210967e-06
9.890011649593683e-07
5.370247069606553e-07
2.8302972024636287e-07
1.4477352230334241e-07
7.18736432689738e-08
3.46394299844979e-08
1.6218712983515897e-08
7.390897221086909e-09
3.290475505376125e-09
1.441269384045073e-09
6.282911345427891e-10
2.770816080514073e-10
1.2598403220436894e-10
6.005091518429768e-11
3.0341227430208926e-11
1.6408576761902527e-11
9.666519595570328e-12
6.361738845076268e-12
4.735678561525712e-12
3.907716666724466e-12
3.4261156969700167e-12
3.068549628255642e-12
2.7388758418122635e-12
2.4072217789402847e-12
2.074383406213697e-12
1.751781950313979e-12
1.4514198140257003e-12
1.1818372895534264e-12
9.472968485311488e-13
7.484349498473767e-13
5.833750457981611e-13
4.487972494583275e-13
3.4076365850707847e-13
2.5526470003023723e-13
1.8853028010991865e-13
1.3717487698497674e-13
9.824200190109994e-14
6.919701503610096e-14
4.789861938691832e-14
3.256416697427103e-14
2.173419147169313e-14
1.4236893509705465e-14
9.152064771055185e-15
5.774409748068907e-15
3.577098768041541e-15
2.176951116717977e-15
1.3027003313003828e-15
7.67439847422189e-16
4.458025816548447e-16
2.5588972273144657e-16
1.4555241701920471e-16
8.238607431951871e-17
4.670610830056425e-17
2.6795060837614445e-17
1.5798967238027617e-17
9.76796900280908e-18
6.4565724929090205e-18
4.607205869247568e-18
3.529474355393597e-18
2.8548001443349555e-18
2.3934087559514404e-18
2.0512835527365433e-18
1.7829779108733725e-18
1.5662167657414075e-18
1.3895037714767022e-18
1.2469083582211314e-18
1.1362152162231333e-18
1.058231612334954e-18
1.0163450152822639e-18
1.0163295480380779e-18
1.0668836897371121e-18
1.1815135391609666e-18
1.3822829640594234e-18
1.7057394387984352e-18
2.2110202993656218e-18
2.98969596818256e-18
4.1762296639020474e-18
5.9569886050730295e-18
8.574614233426033e-18
1.2323497676113739e-17
1.7531501741124307e-17
2.4523350078270295e-17
3.3562566448303e-17
4.4771492217391007e-17
5.803237310330405e-17
7.287623037095037e-17
8.83700291897175e-17
1.0301781661664923e-16
1.1470270834714572e-16
1.2072527595379868e-16
1.1806445954194668e-16
1.0414996898853609e-16
7.879471305949379e-17
4.8713952909666374e-17
3.7737295032056606e-17
1.09469862916182e-16
4.171764483044049e-16
1.3134447424979865e-15
3.591895309774449e-15
9.02216592056798e-15
2.153849989508087e-14
4.988566713094472e-14
1.1350456097300883e-13
2.555721509143942e-13
5.716809949704834e-13
1.2722488320205915e-12
2.8164815460533797e-12
6.195229986902483e-12
1.351701966234482e-11
2.919677228946103e-11
6.23118027756103e-11
1.3115580202945648e-10
2.7180821721737874e-10
5.538042417625531e-10
1.1079279570955754e-09
2.173929728061991e-09
4.179647575501798e-09
7.867370978642585e-09
1.4487586559782423e-08
2.608295279552711e-08
4.588390444578542e-08
7.882809645722215e-08
1.321947987035803e-07
2.163087705313862e-07
3.4521506111737287e-07
5.371607256842459e-07
8.146533872790887e-07
1.2038204870405497e-06
1.7327946178080171e-06
2.4289283702772813e-06
3.3148164148628895e-06
4.4033710864583875e-06
5.692525741676372e-06
7.1604565583415386e-06
8.762420252236184e-06
1.0430301566946196e-05
1.2075681536654154e-05
1.3596673707046363e-05
1.4888016866253437e-05
1.5853126914269596e-05
1.6416207758720194e-05
1.653229255730652e-05
1.619333737277832e-05
1.5429193730842008e-05
1.4303284921522999e-05
1.2903852708299381e-05
1.1332461906391353e-05
9.691853784185595e-06
8.075154992802782e-06
6.557945017046205e-06
5.193935316913772e-06
4.014231839835552e-06
3.0295266235893296e-06
2.234205119892277e-06
1.6112832780414113e-06
1.1372458188319389e-06
7.861465705314145e-07
5.326517086786122e-07
3.539801059960701e-07
2.3088127439156023e-07
1.4788449718882316e-07
9.306993645472382e-08
5.7580882990203796e-08
3.504214512275612e-08
2.0992282994732224e-08
1.2388245439312174e-08
7.204554803871816e-09
4.125891835634001e-09
2.3199291458730367e-09
1.2736662752838057e-09
6.780180891519463e-10
3.4883210031651e-10
1.7553100460257068e-10
9.023413525109856e-11
5.0866413488599e-11
3.2406199739542104e-11
2.1765142111605968e-11
1.3748310108229397e-11
7.405478058239632e-12
3.1513971947083084e-12
1.1279602201523485e-12
7.972553467021377e-13
1.2776807593797436e-12
1.8218839140394544e-12
2.062871172104105e-12
1.9762114168032287e-12
1.702008955317119e-12
1.3850591176257485e-12
1.1043207505390084e-12
8.77447981980823e-13
6.935488446418827e-13
5.392737436606453e-13
4.082163745245021e-13
2.993044071960321e-13
2.1254755765574798e-13
1.4659240007577152e-13
9.852039241137705e-14
6.468602629790044e-14
4.155000872091449e-14
2.6124523183760295e-14
1.6082791590823956e-14
9.698412205507929e-15
5.733255689704514e-15
3.325965476509839e-15
1.8956279942366855e-15
1.062666897323552e-15
5.865404313976037e-16
3.190569553615536e-16
1.7120208172582497e-16
9.07046134500392e-17
4.7494612852980974e-17
2.460136204354081e-17
1.2618084067031144e-17
6.416715585364436e-18
3.241280535489176e-18
1.6279061960580511e-18
8.097466694013257e-19
3.952111944829424e-19
1.9065941875988593e-19
1.6862109403840405e-19
8.847447201207524e-20
4.192557662787518e-20
1.3768517136985295e-20
4.376537300287884e-21
1.425259935197399e-20
3.6459183628563466e-20
6.851071094546848e-20
1.431336402714981e-19
3.7267709611009417e-19
1.031549858285764e-18
2.782929911419869e-18
7.319123544262579e-18
1.9045624785285662e-17
4.934985126523938e-17
1.2734466425556553e-16
3.2690365046626642e-16
8.345173498468736e-16
2.1187807204210478e-15
5.3514568516931126e-15
1.3447991112892216e-14
3.3624723486470276e-14
8.364572348723155e-14
2.069770590769809e-13
5.092517215534004e-13
1.2451769636878986e-12
3.023349807171228e-12
7.282700376013872e-12
1.7384376679782293e-11
4.107220906561429e-11
9.591386409863635e-11
2.2108696236389508e-10
5.023392029305546e-10
1.1235735994704352e-09
2.470702042399792e-09
5.334948204101431e-09
1.1299103875142127e-08
2.344833189173972e-08
4.763434284096523e-08
9.464287614822056e-08
1.8376545292267201e-07
3.484350536094226e-07
6.446982526822858e-07
1.1632661319061552e-06
2.045567049304177e-06
3.503437086183311e-06
5.840668072115332e-06
9.472543611446422e-06
1.4936937150118755e-05
2.2888114024964165e-05
3.406309692047562e-05
4.921164328626595e-05
6.898576300084835e-05
9.379375473257673e-05
0.00012363601806588204
0.00015795265575783087
0.00019552184567684592
0.0002344484963130929
0.000272271617099988
0.00030619624112713904
0.0003334259914754245
0.0003515434509706313
0.00035886661009461204
0.0003547080063482812
0.00033948089832086097
0.00031462985009537823
0.0002824022288303854
0.00024551116560926633
0.00020676023881632133
0.00016870119927172916
0.0001333801301487463
0.00010220096096790415
7.590673910558292e-05
5.465608348025104e-05
3.815931908010376e-05
2.5836682385513524e-05
1.696739022160957e-05
1.0809377889801346e-05
6.681203420531986e-06
4.0071213852874695e-06
2.332291599175607e-06
1.3174902135381175e-06
7.223749761826843e-07
3.844742189598787e-07
1.9866357665567358e-07
9.968407478707136e-08
4.8597536871849855e-08
2.3042252451887005e-08
1.0645596941140774e-08
4.807672736197183e-09
2.1329592498308703e-09
9.361280713036518e-10
4.098552577919615e-10
1.8048369393979268e-10
8.045413228147563e-11
3.6527504034212425e-11
1.7152870135749544e-11
8.705358801793965e-12
5.171865265716726e-12
3.808771024922062e-12
3.3332386848923273e-12
3.151780412226722e-12
3.009781693604932e-12
2.8189689669651168e-12
2.5676747174042327e-12
2.274077838663994e-12
1.9631841816135393e-12
1.6568658533735748e-12
1.3706818608722633e-12
1.113870083929653e-12
8.905634322477717e-13
7.012681415601534e-13
5.441846290648344e-13
4.1622994661406294e-13
3.137544542746587e-13
2.3300241479371983e-13
1.7038299386355307e-13
1.226140058531786e-13
8.678716950307228e-14
6.038799389636677e-14
4.1290053900519386e-14
2.7734167797392275e-14
1.8297816551793982e-14
1.1857963010247859e-14
7.549893234840908e-15
4.724712827256201e-15
2.908045157052528e-15
1.7620770504778203e-15
1.05243757837032e-15
6.206462029273331e-16
3.621908417475711e-16
2.0979464768401246e-16
1.2113208568287362e-16
7.013814958524716e-17
4.107158101319098e-17
2.4591560673131182e-17
1.5243348714312207e-17
9.890158959258547e-18
6.756863006969935e-18
4.856463448469403e-18
3.650118040403518e-18
2.8477071921734825e-18
2.2927722612363247e-18
1.898218145513089e-18
1.6123099311152371e-18
1.4020745034617315e-18
1.2458728721761216e-18
1.1301015590507448e-18
1.0473293411278295e-18
9.948433770805389e-19
9.736027785721132e-19
9.880651621379184e-19
1.0474313894966908e-18
1.1687344438761089e-18
1.3820078126747479e-18
1.7375277178323798e-18
2.3147589599341928e-18
3.232041435945111e-18
4.655182281373357e-18
6.80204272740416e-18
9.939163083514359e-18
1.4365813228171995e-17
2.0380973897049476e-17
2.822991084707645e-17
3.802921721844182e-17
4.967221688053748e-17
6.272010646172194e-17
7.62882347921286e-17
8.894284444021931e-17
9.86355742920699e-17
1.0273045790517855e-16
9.824037408465177e-17
8.252565260071132e-17
5.4995660424360155e-17
2.0960139177230638e-17
5.86546843961754e-20
4.444583824019916e-17
2.77906764110334e-16
9.80349272495824e-16
2.771800667715438e-15
7.016751509468554e-15
1.671964057721724e-14
3.851765421568313e-14
8.712015577436383e-14
1.951691056728658e-13
4.3498971394442924e-13
9.660706889875114e-13
2.1373132026019905e-12
4.703668847893206e-12
1.0276668770772434e-11
2.2242188708706692e-11
4.758836743414199e-11
1.0045905521139232e-10
2.0888492218967796e-10
4.2718678670768227e-10
8.581701373296975e-10
1.6916188382593692e-09
3.2688686145533934e-09
6.187322079387381e-09
1.1463185835670633e-08
2.0774340077013335e-08
3.680605413548899e-08
6.371716547139738e-08
1.0772945107477167e-07
1.7781431008231614e-07
2.8640611893498295e-07
4.5001204946248884e-07
6.895213916709348e-07
1.0299593209285682e-06
1.499404460319357e-06
2.1268248189782855e-06
2.938707657857415e-06
3.954575795925747e-06
5.1817795314328445e-06
6.6102792702485724e-06
8.208406656280076e-06
9.920712598420013e-06
1.1668892177539162e-05
1.3356378526102009e-05
1.4876554870496366e-05
1.612376446800784e-05
1.70055850584018e-05
1.7454377617856447e-05
1.7436073062734784e-05
1.6954577883034852e-05
1.605098434753255e-05
1.4797772773995218e-05
1.3289142973361192e-05
1.1629276685456076e-05
9.92056668109363e-06
8.253630943913745e-06
6.700363081495858e-06
5.310532727893205e-06
4.11173865475998e-06
3.1119876503170697e-06
2.3039024460770388e-06
1.669549020280712e-06
1.1850532283390728e-06
8.244565638660883e-07
5.625526240533828e-07
3.7668664949807235e-07
2.476602830727318e-07
1.5996104611919172e-07
1.0154776808617983e-07
6.339310785567102e-08
3.8934755628787234e-08
2.353460198839045e-08
1.4000235007679136e-08
8.190142715516654e-09
4.703499223253243e-09
2.6453297255273937e-09
1.454748905664909e-09
7.842686859308361e-10
4.192395350745775e-10
2.272307264610385e-10
1.2781705918358464e-10
7.455777726237036e-11
4.3227661095827054e-11
2.3088671447754184e-11
1.0233368180626875e-11
3.1139173610988237e-12
3.2488601821747655e-13
1.4558917670589766e-13
9.50134092238131e-13
1.6700730241219655e-12
1.9104605453260226e-12
1.7435888972882616e-12
1.4046857537409818e-12
1.0798050927364808e-12
8.408192340663342e-13
6.780557309935359e-13
5.564498339280766e-13
4.5072076801270345e-13
3.5295881028553775e-13
2.6551008287736986e-13
1.9243030587194422e-13
1.3526495447235494e-13
9.27886668814795e-14
6.234307958096349e-14
4.1069050251096656e-14
2.6513637308765087e-14
1.6763440274869626e-14
1.0379494764731777e-14
6.298368892145739e-15
3.750254704156597e-15
2.1941660282094777e-15
1.2629365706657686e-15
7.158469548927063e-16
3.998867948434505e-16
2.2032798088944784e-16
1.1983498056368927e-16
6.439951808338321e-17
3.422918034085477e-17
1.8012558228201844e-17
9.394940134726257e-18
4.861661188451232e-18
2.4968086660064646e-18
1.271651726096655e-18
6.427467645277457e-19
3.255814463298387e-19
2.694426948080883e-19
1.37598885480642e-19
6.675706001765381e-20
3.10163571235782e-20
1.801604407791421e-20
1.6905440828486333e-20
1.6607705681557897e-20
1.3763919902956492e-20
2.199930895727676e-20
7.595663274287739e-20
2.4100106355976926e-19
6.676623379098481e-19
1.7687428115965906e-18
4.6848655713826986e-18
1.2461621992918584e-17
3.307321132689939e-17
8.727115181341423e-17
2.2891781696309676e-16
5.973535418528219e-16
1.5515657002108794e-15
4.0125126163781484e-15
1.0333016138690402e-14
2.6498130713091522e-14
6.766005755353632e-14
1.7196608899412624e-13
4.348156946567003e-13
1.0928627310073368e-12
2.7274850312660108e-12
6.750581876609833e-12
1.6545421912880418e-11
4.009632841809415e-11
9.592616564248218e-11
2.2620270483223938e-10
5.249703426240681e-10
1.1973866775122308e-09
2.680580676194295e-09
5.882998473165745e-09
1.2643643716425183e-08
2.6584114110226864e-08
5.463376502418815e-08
1.0965687575970162e-07
2.1479368669143023e-07
4.103132260172484e-07
7.638921286137021e-07
1.3851503618130347e-06
2.4448020009005814e-06
4.197694156302726e-06
7.007131982117071e-06
1.136522783411959e-05
1.790093576699569e-05
2.7364818749804775e-05
4.05788398808091e-05
5.8342202348798475e-05
8.12917368366572e-05
0.0001097275687836425
0.00014342982473937853
0.0001815058247595769
0.00022231406218385614
0.0002635062675992664
0.00030220977345640933
0.00033534168028109314
0.0003600113580018934
0.00037393908851952493
0.0003758062163024992
0.000365461694886731
0.0003439401087148261
0.00031328888450321037
0.0002762450897637309
0.0002358327850989177
0.0001949626069464239
0.00015610507935427404
0.0001210834240878389
9.09994931603213e-05
6.627731436259954e-05
4.678935098537617e-05
3.202348564804666e-05
2.125254227749816e-05
1.3678937642793519e-05
8.540201290714174e-06
5.172842972135213e-06
3.0402087524898465e-06
1.7340260947852362e-06
9.599594070985336e-07
5.159079973331469e-07
2.692260674111371e-07
1.3647211310605434e-07
6.723636075296209e-08
3.2225704670356186e-08
1.5047483800601586e-08
6.859446102055773e-09
3.0608384794331164e-09
1.3408196347500157e-09
5.77812534065755e-10
2.4487481225418703e-10
1.016110769051135e-10
4.0967675548057314e-11
1.6040442042953764e-11
6.4122739106818545e-12
3.1793927904137775e-12
2.449507495873359e-12
2.5427183426084233e-12
2.771965216382247e-12
2.8957030448262995e-12
2.864430892825482e-12
2.7021630688109406e-12
2.4527826676013136e-12
2.15800769120741e-12
1.8502362564811962e-12
1.5517954591081018e-12
1.276499704233857e-12
1.0317183245880582e-12
8.202703090764933e-13
6.419523788129175e-13
4.946926547876128e-13
3.7538159643548984e-13
2.8044526577096903e-13
2.0622367993074303e-13
1.4920861788928284e-13
1.0618410811885635e-13
7.430122988153896e-14
5.11087424162369e-14
3.4553557273814976e-14
2.2960343117214074e-14
1.4997006316841646e-14
9.631536028960054e-15
6.08494796191312e-15
3.784315872990899e-15
2.318969464756954e-15
1.4019070571699624e-15