# vtk DataFile Version 4.1 
COMMENT
ASCII
DATASET STRUCTURED_POINTS 
DIMENSIONS 300 300 1 
ORIGIN 0 0 0
SPACING 0.020943951023931952 0.020943951023931952 0 
POINT_DATA 90000
SCALARS U double 1
LOOKUP_TABLE default
1.3839273334759013e-18
1.288240758259182e-18
1.4692555408057957e-18
3.457605329467174e-18
9.004964672020022e-18
2.0695690558788635e-17
4.465282189720443e-17
9.541259219967971e-17
2.0421815192722302e-16
4.346054297226653e-16
9.121052360224657e-16
1.8776142841158985e-15
3.7764493937004425e-15
7.399439740375664e-15
1.4110496263784175e-14
2.6268848139811425e-14
4.82076318572161e-14
8.889082917829348e-14
1.6941187603136748e-13
3.434709582428071e-13
7.500367798748485e-13
1.739901218313904e-12
4.159386193303011e-12
9.943333101012516e-12
2.326994214994746e-11
5.2654420855879637e-11
1.1448050683387815e-10
2.3855055759981167e-10
4.762679119294922e-10
9.121719134663927e-10
1.6801371769539901e-09
2.9874778081372042e-09
5.1547650830091586e-09
8.687790760259073e-09
1.4411571765316555e-08
2.371379243190062e-08
3.8963655602172176e-08
6.418713905936803e-08
1.0608654667716548e-07
1.754883137268321e-07
2.8928727917286306e-07
4.7292460974019686e-07
7.63376910615107e-07
1.2125172444365984e-06
1.8904969791411675e-06
2.8884688180425767e-06
4.3195640499424415e-06
6.316693272374476e-06
9.025716476958277e-06
1.2593134087263443e-05
1.7148892874215816e-05
2.2787078419960837e-05
2.9549604505955748e-05
3.741947360176287e-05
4.632956037583454e-05
5.618931669507638e-05
6.692545002700917e-05
7.852500248826773e-05
9.106312123920172e-05
0.00010469640212881793
0.00011960843596185674
0.00013590734990038256
0.00015349297341133214
0.00017192825845893512
0.00019035898146784944
0.00020752201159173468
0.00022186383407856648
0.00023176124851935267
0.00023580386372514374
0.00023307414876759582
0.00022335459711587675
0.0002072066479060876
0.00018589853875793222
0.00016119901612323393
0.00013508796947036473
0.00010945299323670676
8.583810595388369e-05
6.529017891930038e-05
4.831846482993347e-05
3.495332165148319e-05
2.487018109376942e-05
1.753789062906652e-05
1.2355724131852615e-05
8.756108457161101e-06
6.264833348260718e-06
4.5225943924276785e-06
3.2787521457142226e-06
2.370032518700487e-06
1.6949540889456324e-06
1.191020555672817e-06
8.178804563864896e-07
5.467734077191755e-07
3.549811869915421e-07
2.235060224953188e-07
1.3640340265078098e-07
8.069627629490312e-08
4.6304410218154216e-08
2.5794578400593772e-08
1.3965071783705903e-08
7.355285955136359e-09
3.770597483504826e-09
1.88013241449317e-09
9.093889460631337e-10
4.240981398294823e-10
1.8859078320189913e-10
7.849088483462694e-11
2.968151025154529e-11
9.791136566750686e-12
2.8327462010629496e-12
1.1457293708677737e-12
1.2374863894633771e-12
1.6550591026961606e-12
1.902086221585739e-12
1.894814441881326e-12
1.6977846198250994e-12
1.4043809636078463e-12
1.0906887723344591e-12
8.042641552485947e-13
5.675006694545432e-13
3.8537621563575396e-13
2.529630831923458e-13
1.6105646699969176e-13
9.972145575053694e-14
6.01492967242169e-14
3.5360800000610775e-14
2.023828235933886e-14
1.1240277246065039e-14
6.022746058911462e-15
3.0857735968202518e-15
1.4933328945487716e-15
6.723261807990095e-16
2.7797699231110507e-16
1.0744608280249235e-16
4.543635074437182e-17
2.9900073860439006e-17
3.020032438200266e-17
3.3188355658498254e-17
3.454832821810678e-17
3.374947042658662e-17
3.1425378503040086e-17
2.826769999562666e-17
2.4737394489386763e-17
2.1111805682789544e-17
1.7589923389093558e-17
1.4343913721799107e-17
1.1512910372876062e-17
9.182927174257734e-18
7.397190094243713e-18
6.214765743803396e-18
5.80332854586041e-18
6.53066909176078e-18
9.017587592613788e-18
1.4132094285470435e-17
2.29344460629473e-17
3.661406009592397e-17
5.64826942610194e-17
8.409669391752161e-17
1.2157188778401517e-16
1.721277668181301e-16
2.408527194979719e-16
3.3561743540568275e-16
4.679772300227369e-16
6.538006681082253e-16
9.132644500826316e-16
1.269820182013543e-15
1.747876350998264e-15
2.3694251732746965e-15
3.150929588472407e-15
4.1037785817267e-15
5.244822927552679e-15
6.628081067453779e-15
8.414437393681365e-15
1.100208970580752e-14
1.5244531091910996e-14
2.2781360866640423e-14
3.649507927787891e-14
6.107831304142186e-14
1.0364589215807524e-13
1.7425490249419723e-13
2.861137064598544e-13
4.55196326446786e-13
6.989873153664787e-13
1.034259496236978e-12
1.4742844268194845e-12
2.0269305604829145e-12
2.697096762113023e-12
3.5004944795506803e-12
4.502036337506664e-12
5.902963558738236e-12
8.21971604136066e-12
1.2629874630542839e-11
2.161419183015964e-11
4.0108085236930755e-11
7.749718019070669e-11
1.5094156971269478e-10
2.9064996542652826e-10
5.477424492758398e-10
1.0050457316822438e-09
1.7902866555972214e-09
3.0894460140196744e-09
5.155583381862221e-09
8.306207207420078e-09
1.290295056002042e-08
1.9316367712766575e-08
2.7904912162595666e-08
3.9092165552327705e-08
5.3721357759032365e-08
7.400521417825774e-08
1.0555854894329736e-07
1.611570655339358e-07
2.669256463350783e-07
4.7150349147856484e-07
8.582290454739049e-07
1.5594386542734806e-06
2.7705920439117317e-06
4.7603211347310155e-06
7.871068112912145e-06
1.2504349955322661e-05
1.9085536031683485e-05
2.800585917192035e-05
3.954426161161265e-05
5.377800602835518e-05
7.049744002155968e-05
8.914503336703943e-05
0.00010879983646129769
0.00012822431852208593
0.00014598066455799423
0.00016060905605787414
0.000170843878465326
0.0001758292019626325
0.00017528689831716195
0.00016959339686212416
0.00015973622153968547
0.0001471474627017216
0.00013344255461824453
0.00012012034689391612
0.00010829505234697564
9.852570341209377e-05
9.078377027109414e-05
8.456130061005821e-05
7.908246547481784e-05
7.35539421654484e-05
6.738323086833668e-05
6.0310106344685394e-05
5.2428071218332284e-05
4.410786206374864e-05
3.586159042882981e-05
2.8196357880636932e-05
2.1499429051375112e-05
1.59786718783347e-05
1.1660426788489132e-05
8.430019804141314e-06
6.092169958380477e-06
4.429741826984414e-06
3.2466425964190885e-06
2.3899080573547604e-06
1.7535716299507324e-06
1.27092538361221e-06
9.022645721010557e-07
6.233645843209965e-07
4.173084300344862e-07
2.7004895397693855e-07
1.6879908869080392e-07
1.0197518835845699e-07
5.964393922723302e-08
3.3867181425909404e-08
1.8738302652266753e-08
1.0147736498738958e-08
5.406313241471851e-09
2.848548241195056e-09
1.4917158430702487e-09
7.794735591406786e-10
4.0734571715683466e-10
2.1293471709203523e-10
1.1110836252286577e-10
5.763274551608315e-11
2.954826196553039e-11
1.487344603808994e-11
7.29733493042769e-12
3.463909313670895e-12
1.5789016688150791e-12
6.857513845705919e-13
2.814526972802028e-13
1.081752408635761e-13
3.857196258089124e-14
1.2690414648781628e-14
3.917798093641113e-15
1.2503290235872421e-15
5.183239128616645e-16
3.099415927026087e-16
2.1708698676150867e-16
1.4892976799135148e-16
9.488060390524785e-17
5.61701034270291e-17
3.148630212630065e-17
1.6867272919074743e-17
8.311541605748237e-18
3.494788871914317e-18
1.4368617956658068e-18
1.1765567042206788e-18
1.663205605971632e-18
4.935189951722747e-19
9.254298846167338e-20
1.0238722937606702e-18
3.2931811484480997e-18
7.150193698037205e-18
1.4696703735968465e-17
3.1726295456918715e-17
7.074665566097539e-17
1.5786885708964242e-16
3.479464971189589e-16
7.548952229111215e-16
1.6084360192742459e-15
3.3571315734766073e-15
6.859625152098971e-15
1.3767247685771872e-14
2.7371753637248662e-14
5.465463134715955e-14
1.1146626853702757e-13
2.356357958378586e-13
5.192437636362713e-13
1.1845669658499994e-12
2.753198091780106e-12
6.400040046609999e-12
1.464611051111381e-11
3.262036422016662e-11
7.018932416153435e-11
1.4527796317838215e-10
2.8866305892152057e-10
5.504811383783513e-10
1.0089654585871794e-09
1.7832362772906755e-09
3.055560223798183e-09
5.1159667758401846e-09
8.454830073131968e-09
1.394716963475681e-08
2.3194045887806116e-08
3.910717367567422e-08
6.683676702708104e-08
1.1514342745720693e-07
1.9829663424301072e-07
3.385374669517735e-07
5.690580249200619e-07
9.373020806006994e-07
1.5081546727601773e-06
2.36625385146169e-06
3.616271728219383e-06
5.379716130370452e-06
7.786849867514123e-06
1.0963020632931939e-05
1.5010263460070663e-05
1.9987401810380467e-05
2.589445919311523e-05
3.2668895803028537e-05
4.020062396121651e-05
4.836884879862745e-05
5.7096470346073514e-05
6.64086004237196e-05
7.64738168910822e-05
8.760403367166995e-05
0.00010019456303249888
0.00011460094070310732
0.00013097061679919066
0.00014906935423678508
0.00016815586231321098
0.0001869565987420701
0.00020377286597917497
0.00021671782026181808
0.00022404157101236222
0.0002244712815384192
0.0002174817579374662
0.00020342590102757257
0.0001834902528986369
0.0001594874076304485
0.0001335391902845139
0.0001077290588464148
8.380267506942608e-05
6.297415971268613e-05
4.586135630748749e-05
3.2538554368532686e-05
2.266991202380626e-05
1.567661669999469e-05
1.0895155751443249e-05
7.698091884304281e-06
5.565909330384413e-06
4.113165964181289e-06
3.081157615690913e-06
2.3120867389924035e-06
1.7178078209112887e-06
1.251892843665579e-06
8.891259175005385e-07
6.129415242806097e-07
4.0925248823115435e-07
2.644178162984156e-07
1.653098941159387e-07
1.0005614767687197e-07
5.868321307744089e-08
3.3387906111270176e-08
1.844887758234397e-08
9.910247761786395e-09
5.177996146861985e-09
2.630638695484512e-09
1.2973848756448012e-09
6.190012830776163e-10
2.841510966557812e-10
1.2464309280198347e-10
5.202663203249066e-11
2.095597188206937e-11
8.80739480353131e-12
4.6696446491554746e-12
3.529540526095709e-12
3.255952574469128e-12
3.06327066099512e-12
2.7477529087491462e-12
2.323121004291767e-12
1.8586492427510535e-12
1.4164477691848872e-12
1.0343218847385297e-12
7.271710858352881e-13
4.940424774978406e-13
3.2530405951745456e-13
2.0803724248668045e-13
1.2939612470475854e-13
7.8314355592567e-14
4.608916624058101e-14
2.6314572866677468e-14
1.4510949706690442e-14
7.67133682626568e-15
3.842798052714332e-15
1.790842038986252e-15
7.5343465471681e-16
2.713630508378689e-16
7.584951978266466e-17
1.5765798554047604e-17
1.0974826548376693e-17
2.261392277212574e-17
3.44354122854498e-17
4.14747834155863e-17
4.3585551896303044e-17
4.2115755034158535e-17
3.847605827200129e-17
3.371466199140811e-17
2.8523105323972917e-17
2.335117296289333e-17
1.8496007867969983e-17
1.41450478109039e-17
1.0402441017082556e-17
7.331993390716486e-18
5.0281436708643614e-18
3.700001989267508e-18
3.736837548814407e-18
5.724054960848656e-18
1.0396670490225771e-17
1.854644455218225e-17
3.092949511155654e-17
4.8243494867647316e-17
7.124993087908314e-17
1.0110330803823648e-16
1.3991415526681032e-16
1.915156306705997e-16
2.6232370028265164e-16
3.620792923187823e-16
5.041460872809139e-16
7.049358100880326e-16
9.820007455211616e-16
1.3504721889908592e-15
1.8179921269793406e-15
2.3793035038493836e-15
3.0134994692781176e-15
3.689849380986729e-15
4.392272272883258e-15
5.1777629294349754e-15
6.289641308125392e-15
8.350699481680315e-15
1.2661240311910371e-14
2.1618506008519986e-14
3.925242522809497e-14
7.183459297535449e-14
1.2846420094360887e-13
2.2147722745136292e-13
3.664908373190073e-13
5.819346506421872e-13
8.881168034747804e-13
1.3063480091754636e-12
1.8595770344762376e-12
2.5776357727629226e-12
3.5129674632539528e-12
4.7773490010542165e-12
6.6179683266222375e-12
9.564738946484514e-12
1.47040919061193e-11
2.4173884499570954e-11
4.2036810586940006e-11
7.578008774882661e-11
1.3879843824651176e-10
2.5430489221660463e-10
4.610806073780589e-10
8.211379639651111e-10
1.428468148045957e-09
2.4163190753263276e-09
3.957899305789418e-09
6.252773005517034e-09
9.49076460632368e-09
1.3791651092389523e-08
1.9140169244439523e-08
2.538265554624401e-08
3.243517552400288e-08
4.09792999114008e-08
5.4082232740484635e-08
8.033803631831248e-08
1.3921521501286035e-07
2.692044658870729e-07
5.389596510829857e-07
1.0608059869827151e-06
2.0047285411965203e-06
3.609388407183675e-06
6.1851966144465925e-06
1.010357310357759e-05
1.576691201995876e-05
2.3556062488089267e-05
3.375655760724137e-05
4.647100889268179e-05
6.153189627291483e-05
7.843461371996783e-05
9.631293463771909e-05
0.00011397614476691312
0.00013001799872908344
0.00014299299005246868
0.00015163766713751286
0.00015509808709592758
0.00015311413430416147
0.0001461120737394147
0.0001351709325538246
0.00012185494452265105
0.00010793776115190399
9.507524628588431e-05
8.450219118422451e-05
7.68265763281284e-05
7.197143303624718e-05
6.927484226256282e-05
6.77152334099541e-05
6.619601791941548e-05
6.381150033146089e-05
6.002820307153556e-05
5.474675183385373e-05
4.824752673070667e-05
4.105519545329867e-05
3.3773483866025037e-05
2.693937118051186e-05
2.0929411182552625e-05
1.5928342333833285e-05
1.1950176124312528e-05
8.890301963524436e-06
6.585290868663009e-06
4.8627568662307244e-06
3.5726791359621933e-06
2.5999859847259946e-06
1.8634896720848708e-06
1.3079007106472831e-06
8.9455082829564e-07
5.941097549263671e-07
3.8230287858261635e-07
2.3814899430277336e-07
1.436632631527374e-07
8.405471246249608e-08
4.782545594163738e-08
2.6563640656702553e-08
1.4472771230846002e-08
7.7786684162681e-09
4.148980170987439e-09
2.208334250479175e-09
1.1778631034179577e-09
6.308231411934111e-10
3.390355528368028e-10
1.8228737890978248e-10
9.755167931056167e-11
5.16349391901841e-11
2.6848895168802888e-11
1.3621722389808147e-11
6.699595142144378e-12
3.1751504299094277e-12
1.442126059322356e-12
6.247652266881362e-13
2.5733733674751926e-13
1.0081816331484514e-13
3.792902115669823e-14
1.4123908683453848e-14
5.555458844295357e-15
2.5110589593742964e-15
1.3426299968946184e-15
7.987590474530639e-16
4.874222199648753e-16
2.906757488798929e-16
1.6645701742216856e-16
9.127143052233487e-17
4.776763408510015e-17
2.3627161428539922e-17
1.1133637740955527e-17
5.453463278360391e-18
3.0777877472982586e-18
3.1702091015259822e-18
8.652999754159358e-19
2.921135072822287e-19
8.193023315836409e-19
1.5947216301023754e-18
2.413252257920365e-18
4.3237588027278864e-18
9.800588160896489e-18
2.358288094505469e-17
5.575567461498319e-17
1.293011459328228e-16
2.9633614925741604e-16
6.708512282003675e-16
1.493065421787877e-15
3.2586521056840495e-15
6.991245284989415e-15
1.4849127658279457e-14
3.154196899034609e-14
6.77435072947033e-14
1.4837583714377378e-13
3.3242846030003773e-13
7.588747451557588e-13
1.7483356059947137e-12
4.01596074167475e-12
9.089266878774936e-12
2.007040883096658e-11
4.29172785117584e-11
8.84077673224815e-11
1.7486269328991517e-10
3.3156129266663715e-10
6.028001199515803e-10
1.0533018631219452e-09
1.7782867046814715e-09
2.927594835962767e-09
4.764517496499114e-09
7.79742901398358e-09
1.3045058483610496e-08
2.2520817875333736e-08
4.004188245242022e-08
7.247658707486127e-08
1.3152955026049558e-07
2.3611580209320218e-07
4.1527653867314294e-07
7.114180188615637e-07
1.1833905082721376e-06
1.9085656497646137e-06
2.982673068220436e-06
4.515869431946769e-06
6.623594645729798e-06
9.411543091593163e-06
1.2955789669352322e-05
1.728170865012011e-05
2.2348231080915813e-05
2.8046022172002484e-05
3.421776359394704e-05
4.070455479084501e-05
4.741421528811741e-05
5.439647302492911e-05
6.190010200915786e-05
7.038265403680061e-05
8.044866523300385e-05
9.270869850269078e-05
0.00010757670682645933
0.00012504994412552653
0.00014453426284144957
0.00016477904844055063
0.00018396581521889658
0.00019995566241663078
0.0002106540457464426
0.00021441190060569645
0.00021036439123303587
0.00019862013494791847
0.00018025220795758482
0.00015709547421930412
0.0001314054698526652
0.00010546623336344948
8.123929464724196e-05
6.012463195738777e-05
4.286645946000213e-05
2.9596007457974348e-05
1.9972473244334804e-05
1.3369129795470431e-05
9.05451379553128e-06
6.333628344860189e-06
4.633740291850758e-06
3.5368464870640653e-06
2.772113443290663e-06
2.1856089972483986e-06
1.702920000590404e-06
1.295391861854677e-06
9.552511890290073e-07
6.804760210547885e-07
4.6764760733532577e-07
3.100500172224892e-07
1.984587521206237e-07
1.2278139250922153e-07
7.352118641564787e-08
4.2671883057961365e-08
2.4040264234230286e-08
1.3162993785391558e-08
7.011387303352015e-09
3.634982864877981e-09
1.8341082709826297e-09
9.002447614748205e-10
4.2974258606485467e-10
1.9991582325703393e-10
9.146606927779013e-11
4.2252467432170837e-11
2.0834538499509883e-11
1.182475349202607e-11
8.000610847399142e-12
6.1605425749350075e-12
5.001042377243152e-12
4.061687186864871e-12
3.22206164353117e-12
2.4761203610578283e-12
1.8406353138303405e-12
1.3247061058820855e-12
9.245017226670402e-13
6.266173193033537e-13
4.1300083596721134e-13
2.6492336662362114e-13
1.6543913056546167e-13
1.0053308900872482e-13
5.935942399079569e-14
3.3955937061184097e-14
1.8726262704168944e-14
9.878706478629093e-15
4.924080822666569e-15
2.2734002615816888e-15
9.388960217661673e-16
3.234343768947239e-16
7.773013793249042e-17
6.0126722155244685e-18
4.8437598247089376e-18
2.4118070592204948e-17
4.278859285203856e-17
5.432115649013644e-17
5.848522841328577e-17
5.712816158763466e-17
5.229720266643025e-17
4.5608495852807816e-17
3.8175357118500385e-17
3.0716991892985076e-17
2.3679873251999344e-17
1.7327910647875025e-17
1.1812684832298246e-17
7.244082345119482e-18
3.767009574128298e-18
1.6301710290446728e-18
1.2212492551278082e-18
3.0459146506128715e-18
7.646184103465861e-18
1.5481486251716332e-17
2.6824590530035812e-17
4.17446611152001e-17
6.025305747612566e-17
8.266904240529908e-17
1.1022008891750339e-16
1.4582479882337897e-16
1.9491698291370794e-16
2.660619251152404e-16
3.710028955478022e-16
5.23685704449772e-16
7.377947666346454e-16
1.0224845823103462e-15
1.3764391165338695e-15
1.7813200735519526e-15
2.1972946898937544e-15
2.5658892184215257e-15
2.8290412983589438e-15
2.9778368735477048e-15
3.1494654688881766e-15
3.795113242791375e-15
5.942552862666562e-15
1.1571834102775053e-14
2.4107119896429378e-14
4.8999975305645847e-14
9.434110752746022e-14
1.7139905873285997e-13
2.9497010300876185e-13
4.834776189205503e-13
7.589493920175469e-13
1.1474217612177273e-12
1.6810934837828043e-12
2.4048452642441668e-12
3.3918080548295364e-12
4.7759716524606535e-12
6.815310037907983e-12
1.0008395601025475e-11
1.5304259867024337e-11
2.4474379319321215e-11
4.0763147082074945e-11
7.000244357299579e-11
1.2245882867508738e-10
2.1574217474085814e-10
3.790536721876792e-10
6.587243947349234e-10
1.1241515916261076e-09
1.8716279933118968e-09
3.0211242908653425e-09
4.698384445270096e-09
6.993571222299575e-09
9.892134232210999e-09
1.3190398617636312e-08
1.6447232933923095e-08
1.909473034867508e-08
2.0942278563019672e-08
2.3455344352193273e-08
3.234623892163599e-08
6.212011560744982e-08
1.4318019886676995e-07
3.317906770926248e-07
7.225094623548735e-07
1.4615851071184658e-06
2.758346655047357e-06
4.890084759082631e-06
8.194827645116012e-06
1.3046412670628253e-05
1.980798985537338e-05
2.8763950948426837e-05
4.0036095550671393e-05
5.34967145732164e-05
6.869751578153617e-05
8.483675290858723e-05
0.00010078539687590598
0.0001151853189582081
0.00012661836411576589
0.00013382700928625478
0.0001359491589579403
0.00013271696115514168
0.00012456764885216475
0.00011262665548232951
9.854918846645258e-05
8.424096628378998e-05
7.151278716764541e-05
6.174623464212985e-05
5.5650423750545996e-05
5.31692291393301e-05
5.3559560398859404e-05
5.5615418168908214e-05
5.797419206501632e-05
5.942320883868058e-05
5.913123993552975e-05
5.67579737721933e-05
5.243352954799934e-05
4.6636320435918555e-05
4.00198297528579e-05
3.324229744264848e-05
2.6840263995641053e-05
2.1164887403477703e-05
1.6377927961230446e-05
1.248921590246391e-05
9.412130137573148e-06
7.016898033703845e-06
5.1696216536961375e-06
3.7536454358315997e-06
2.6762048042801764e-06
1.8661152808438203e-06
1.26807906843601e-06
8.373385195538006e-07
5.362524217945644e-07
3.3278525929234565e-07
2.001560491554564e-07
1.1683357839561873e-07
6.63580379956387e-08
3.681959443159021e-08
2.006687919878414e-08
1.0814489404207405e-08
5.806059998313998e-09
3.1273979910315965e-09
1.6990951287392738e-09
9.331415670503098e-10
5.172892993896433e-10
2.880849602882929e-10
1.6008234630313163e-10
8.808331446833486e-11
4.763782960445942e-11
2.5155409160718633e-11
1.2896675901411227e-11
6.390104029884305e-12
3.049763573709744e-12
1.3995573963448982e-12
6.180437250474363e-13
2.6401456516864845e-13
1.1053196160107705e-13
4.649744662665851e-14
2.0392614922311417e-14
9.665447270325108e-15
5.00524703517772e-15
2.7678173398174065e-15
1.5736452753751985e-15
8.914555509594973e-16
4.939644895298678e-16
2.653026909520274e-16
1.3744029564298646e-16
6.859886905264385e-17
3.33225922791504e-17
1.6111949063174894e-17
7.672958563453073e-18
8.633662159044328e-18
3.421956586708328e-18
1.7160637781948038e-18
1.3094778935249902e-18
9.623340546680222e-19
6.079037130338349e-19
9.239843599104868e-19
2.8221758003237465e-18
7.756382933667568e-18
1.925274632204739e-17
4.654174758076762e-17
1.1285415760943977e-16
2.7306289989271104e-16
6.499630365660971e-16
1.5113825936923069e-15
3.4408900811384286e-15
7.725650644698286e-15
1.7258417192844768e-14
3.8677667233567826e-14
8.748036467095381e-14
2.0010809894136377e-13
4.617686990144201e-13
1.067951475023653e-12
2.4535011807432086e-12
5.546736714395049e-12
1.2233391544651296e-11
2.6131015724522005e-11
5.3747945801740005e-11
1.0599269898378557e-10
1.998036665463406e-10
3.595152081378066e-10
6.179031480518412e-10
1.0186010691350768e-09
1.6262695175739923e-09
2.5603960670865297e-09
4.084415091427012e-09
6.8040540507357e-09
1.205505478216212e-08
2.258523986601531e-08
4.3650792423183376e-08
8.464008533002287e-08
1.6129521668794664e-07
2.985012974910492e-07
5.334315855073178e-07
9.185506879723094e-07
1.5235894274988755e-06
2.435173033201809e-06
3.7524669498966203e-06
5.57727702697283e-06
7.997853529229299e-06
1.1067486898120317e-05
1.4781832203108696e-05
1.906218479140945e-05
2.3754394647593847e-05
2.865300493714557e-05
3.355591122454252e-05
3.834580499456335e-05
4.3082290752547444e-05
4.807654029613525e-05
5.3913954971010835e-05
6.139462537463252e-05
7.137885424776575e-05
8.455338736751987e-05
0.00010116574969645059
0.00012079807278628568
0.00014225704254179866
0.00016363691600501177
0.0001825701716318795
0.0001966265527629171
0.0002037732730161219
0.000202784069690814
0.0001934928302373681
0.00017682753713895778
0.00015461971713194315
0.00012924403672740997
0.00010318325164789784
7.862394941263375e-05
5.7168114234067056e-05
3.970439230655055e-05
2.64364222635373e-05
1.7028401283667692e-05
1.0809213319961609e-05
6.977348160668294e-06
4.764433888407478e-06
3.5372069262239234e-06
2.838198427142766e-06
2.379179013963545e-06
2.0069349450051023e-06
1.6596329864547423e-06
1.326745491989269e-06
1.0191923183077302e-06
7.510935440456715e-07
5.312490474961152e-07
3.6114712115933496e-07
2.3639669383481947e-07
1.4928567797456707e-07
9.113141711942361e-08
5.387948652264809e-08
3.090840662806127e-08
1.723317573410017e-08
9.3532619347963e-09
4.948695006725621e-09
2.5561163131666603e-09
1.291388315855543e-09
6.402320104301366e-10
3.1348984546241614e-10
1.535417992052445e-10
7.694571417755507e-11
4.0788201855541014e-11
2.3656797025871897e-11
1.5216754297443948e-11
1.0665260967888613e-11
7.865074654994325e-12
5.909149938716775e-12
4.428136091854087e-12
3.271473374757927e-12
2.3693165151542887e-12
1.677834894060985e-12
1.160537094398498e-12
7.8372739316036e-13
5.16607637115832e-13
3.322815756404933e-13
2.084191160945306e-13
1.273425312122844e-13
7.564872374473847e-14
4.356435717416988e-14
2.4209953654565298e-14
1.2895855585425603e-14
6.518106164047832e-15
3.078821950611848e-15
1.3272857287625795e-15
5.034444523900411e-16
1.6102546884386794e-16
4.8937805674583594e-17
3.3630568740336965e-17
4.947554919693237e-17
6.797900730993253e-17
7.942710442069437e-17
8.254199261770356e-17
7.910117323410987e-17
7.145429118029974e-17
6.159003735543888e-17
5.0931316077396124e-17
4.040630300625655e-17
3.058314714317531e-17
2.1793861931742216e-17
1.4236921727992733e-17
8.065405867900786e-18
3.461234442066965e-18
6.836566357575016e-19
7.349709211969191e-20
1.9998784558100857e-18
6.753808827151271e-18
1.441875665080821e-17
2.4774185887778937e-17
3.7304719290629173e-17
5.138691145427088e-17
6.670206126663561e-17
8.387493370768483e-17
1.0526572559913003e-16
1.3575029354343345e-16
1.8322011364106701e-16
2.584345887350409e-16
3.7379231429243563e-16
5.406013411714411e-16
7.645932743572631e-16
1.039846338645049e-15
1.3420992549120714e-15
1.623825765612872e-15
1.8155862655194293e-15
1.8412202517938653e-15
1.6583727687471416e-15
1.3402958717764622e-15
1.218887195755125e-15
2.1107903209011447e-15
5.645570126094729e-15
1.4704683552554563e-14
3.3960424343417046e-14
7.047696560366841e-14
1.3430993278322074e-13
2.39036965699915e-13
4.022052007188069e-13
6.45845459196935e-13
9.975459154099612e-13
1.4931817005872652e-12
2.1833596314476373e-12
3.1471065094560577e-12
4.518601743105984e-12
6.536497104301638e-12
9.63199784811113e-12
1.4584067053229507e-11
2.2792085983395996e-11
3.675321156881948e-11
6.088655561791745e-11
1.0291248944692344e-10
1.7604218050966791e-10
3.0218429259468786e-10
5.160907201331762e-10
8.696297404686194e-10
1.4339636461165186e-09
2.2952357934515754e-09
3.5368465696375845e-09
5.199983668205342e-09
7.21703370144962e-09
9.325592861557796e-09
1.100238684419805e-08
1.151626288570955e-08
1.029511006344801e-08
7.931901730677994e-09
8.300712901887867e-09
2.2367178874614472e-08
7.427829779872668e-08
2.1009441263984426e-07
5.089685024802351e-07
1.0956148901591716e-06
2.1515804454327766e-06
3.921350818601972e-06
6.708117768194491e-06
1.085370633281007e-05
1.6698369095442478e-05
2.4519382029567557e-05
3.445265141345562e-05
4.6408192406416795e-05
5.999689782566181e-05
7.4490373011991e-05
8.88354892406234e-05
0.00010173897353954667
0.00011182444102270907
0.00011784642783746924
0.00011892701247905686
0.00011476595025885345
0.00010577058809335084
9.306122623150115e-05
7.833152633474545e-05
6.357776782438546e-05
5.074655996709863e-05
4.137711190092724e-05
3.632174490706154e-05
3.561248894315462e-05
3.850532917724087e-05
4.368720845605869e-05
4.958857898185683e-05
5.471946203845902e-05
5.794699605989732e-05
5.865604667977784e-05
5.6772398708996494e-05
5.2667012834264314e-05
4.698754591368999e-05
4.047293211453138e-05
3.379857482825205e-05
2.7479790987481744e-05
2.183838911277625e-05
1.7019404393063558e-05
1.3036238874073127e-05
9.822775837067977e-06
7.27742797215515e-06
5.292440703988848e-06
3.7687351269632905e-06
2.6204618664870457e-06
1.7742649799839334e-06
1.167091986829332e-06
7.445445962278361e-07
4.6021517039099674e-07
2.7561115558400796e-07
1.6008674782704287e-07
9.040301976629311e-08
4.983799704262126e-08
2.6986711895586294e-08
1.4472602946786759e-08
7.76380493843055e-09
4.208653941026291e-09
2.3236613669252132e-09
1.3106720979968562e-09
7.531403890852597e-10
4.3752669015107495e-10
2.5442144820651613e-10
1.466233960911435e-10
8.303067875846399e-11
4.5893382344655475e-11
2.4638636292131483e-11
1.2806814767297525e-11
6.434911803238454e-12
3.1266076175909824e-12
1.4733733006504032e-12
6.778994579673035e-13
3.081536847139354e-13
1.408521795954179e-13
6.61161130399671e-14
3.243503094656235e-14
1.6716048895795042e-14
8.96031398360731e-15
4.90166399818894e-15
2.6846456415645533e-15
1.4510997483897626e-15
7.669620325439837e-16
3.943360338636373e-16
1.969384705517516e-16
9.575103975326482e-17
4.534904694093971e-17
2.058558425201104e-17
2.50692448901329e-17
1.0829163674163094e-17
4.948921779651082e-18
2.2984221365317885e-18
7.968471568123559e-19
6.76741788647274e-20
1.4249275967108592e-19
9.572567992570057e-19
2.69906761361751e-18
6.487812180526883e-18
1.591787145717655e-17
4.1257274261414274e-17
1.0853354314667418e-16
2.7820610437097715e-16
6.87156338334612e-16
1.6471007307186223e-15
3.873769846343336e-15
9.023253998963662e-15
2.096904410500672e-14
4.8866180664112295e-14
1.1442734451925897e-13
2.6875006899736884e-13
6.297204380542433e-13
1.4609634193207066e-12
3.328148472635015e-12
7.385113137312285e-12
1.5848740549206334e-11
3.269107177791224e-11
6.446973979815361e-11
1.2100740716554512e-10
2.1538558358403644e-10
3.627530597029966e-10
5.785269327769277e-10
8.800360212814973e-10
1.3033554529878394e-09
1.960792270985162e-09
3.184984633704463e-09
5.831530054649243e-09
1.1839129476278956e-08
2.5166640024061692e-08
5.3228481830098525e-08
1.0891683634305308e-07
2.1320768903869765e-07
3.981685356127229e-07
7.098907362787994e-07
1.2104547201187563e-06
1.9775583855139144e-06
3.1000610899318273e-06
4.667711855034377e-06
6.754129036302045e-06
9.394019835801963e-06
1.2558710899462253e-05
1.6137750801248665e-05
1.9937320176303902e-05
2.3706516123844597e-05
2.7198354782861864e-05
3.0262696581577816e-05
3.2954485018047504e-05
3.5626556521730244e-05
3.896769238246648e-05
4.394953406847121e-05
5.166385655490609e-05
6.306276829310508e-05
7.865088687382453e-05
9.820809342696432e-05
0.00012063124855518154
0.00014396517415861282
0.00016564832990565524
0.00018293842683321098
0.00019342665677981908
0.00019551608220575513
0.00018874300330651072
0.00017386040100709043
0.0001526672856868457
0.00012763577758613726
0.00010143721820947218
7.6485245787192e-05
5.4595451272742476e-05
3.6817703112955435e-05
2.3445228065367274e-05
1.4160935900612991e-05
8.257427879173737e-06
4.865344432014961e-06
3.140352909630324e-06
2.3831647133095314e-06
2.090386218769534e-06
1.950495985547813e-06
1.8065551683867466e-06
1.6065887115979405e-06
1.3570108624652768e-06
1.0873630325428286e-06
8.284768720457701e-07
6.021846851576193e-07
4.189689885828954e-07
2.7989917126181706e-07
1.8006736634484072e-07
1.1184590123957613e-07
6.723668839467176e-08
3.920808251288752e-08
2.222619123037582e-08
1.227438478930729e-08
6.61836991224742e-09
3.493386882343096e-09
1.8112211111153483e-09
9.270567632902869e-10
4.721020491732522e-10
2.4207494786740006e-10
1.2710835701086508e-10
6.973211250015195e-11
4.067286301946796e-11
2.539417855761295e-11
1.684459497776633e-11
1.1667430600158677e-11
8.279181155623203e-12
5.925210835424763e-12
4.230361160184053e-12
2.99184554127707e-12
2.0866269839649126e-12
1.430981334851179e-12
9.630303682778406e-13
6.350514990625298e-13
4.098067041873244e-13
2.5845576354367587e-13
1.5906540112159427e-13
9.534757516791536e-14
5.552198438580922e-14
3.129827870127372e-14
1.6999488959324767e-14
8.842004165890559e-15
4.3714478529234515e-15