# vtk DataFile Version 4.1 
COMMENT
ASCII
DATASET STRUCTURED_POINTS 
DIMENSIONS 300 300 1 
ORIGIN 0 0 0
SPACING 0.020943951023931952 0.020943951023931952 0 
POINT_DATA 90000
SCALARS U double 1
LOOKUP_TABLE default
6.835488324778324e-19
3.4094919467973097e-19
3.7500815945186873e-19
1.8488699144950932e-18
5.969699537210627e-18
1.4791330934702037e-17
3.390679702962719e-17
7.647496584839475e-17
1.6890329482606405e-16
3.6251105914492685e-16
7.613602008275712e-16
1.5877944349186175e-15
3.3386367522833152e-15
7.164718192328382e-15
1.578151940191818e-14
3.5567846887535044e-14
8.115681519352572e-14
1.8494012856962017e-13
4.156984356944472e-13
9.132784518776728e-13
1.950210099707043e-12
4.037087060687699e-12
8.098058001430691e-12
1.5759966618186996e-11
2.983383260361126e-11
5.514606840138215e-11
1.0005899934623796e-10
1.7943312841933698e-10
3.206642955691182e-10
5.76150948073479e-10
1.0485698893938352e-09
1.939988870879705e-09
3.641841449201891e-09
6.888570469860147e-09
1.2999930173159728e-08
2.4230726577973672e-08
4.422839963345054e-08
7.857072474157649e-08
1.3533340001366482e-07
2.256526497440376e-07
3.643438010309801e-07
5.708412863006974e-07
8.710095501486962e-07
1.3006061103245742e-06
1.9111101793736927e-06
2.777961561906519e-06
4.00978862970421e-06
5.7550741186778674e-06
8.200563933007297e-06
1.1554736197225655e-05
1.601118876683556e-05
2.1691813901038935e-05
2.857784377281033e-05
3.644626021876408e-05
4.483603208675753e-05
5.3068948429196095e-05
6.034044396320596e-05
6.587690321518615e-05
6.913186679678876e-05
6.997236006104287e-05
6.87972893030593e-05
6.653885312418083e-05
6.45254503869436e-05
6.42235725707853e-05
6.69141899893351e-05
7.338287293385049e-05
8.370347498845099e-05
9.717188197416647e-05
0.00011240672176722802
0.000127590927054381
0.00014079477186965095
0.0001503061855855828
0.00015489970593297962
0.00015399694445987873
0.00014770073437374745
0.00013671357104007192
0.00012217202278915333
0.00010543930441851626
8.789820694862068e-05
7.077838971300346e-05
5.50391117663232e-05
4.131437125864945e-05
2.9915105343800798e-05
2.0874548701401972e-05
1.4018865561643576e-05
9.045477799468622e-06
5.595008074242709e-06
3.3079223680847668e-06
1.8622875089111027e-06
9.934174156282023e-07
4.989705790292597e-07
2.3421936650959322e-07
1.0206526863700272e-07
4.1430320460109684e-08
1.641417205024204e-08
7.44235409428464e-09
4.749183462649139e-09
3.9939000557014305e-09
3.5573391841199646e-09
3.0204672659153516e-09
2.3941865624187774e-09
1.7806855731443769e-09
1.255860332884503e-09
8.490844952254524e-10
5.560443222252341e-10
3.561911478203208e-10
2.2527989949989373e-10
1.4189466370409453e-10
8.966748856426792e-11
5.717138215565052e-11
3.6903775910270515e-11
2.4140044640437005e-11
1.5982479272432703e-11
1.0677917669893612e-11
7.1686611231103355e-12
4.812571554456376e-12
3.2142572375390824e-12
2.1250518088289857e-12
1.38425320782848e-12
8.847499571580688e-13
5.529638647971066e-13
3.3712602479481173e-13
2.0032591759070656e-13
1.1623245861398627e-13
6.628225409161675e-14
3.768005749908817e-14
2.1880859824635795e-14
1.3399714474547066e-14
8.879616183319636e-15
6.379724038418118e-15
4.853311025888635e-15
3.783523225343492e-15
2.9435737611881586e-15
2.2492401625403244e-15
1.6754650073387165e-15
1.2143554998260857e-15
8.577173051350146e-16
5.925576316260504e-16
4.0228828787487004e-16
2.695273920354038e-16
1.7853096804650177e-16
1.1658167817891436e-16
7.434900924269168e-17
4.55226699839928e-17
2.607622988307002e-17
1.345960126343944e-17
5.920246809217173e-18
2.052848988501237e-18
5.927292652696619e-19
4.061353383678651e-19
5.9364562854102465e-19
6.12992500516408e-19
3.4356074364609277e-19
5.09381414557192e-20
2.5515845532325484e-19
1.5464133261822212e-18
4.413663928705518e-18
9.147081058031464e-18
1.584623902700408e-17
2.4524773266547955e-17
3.527006398241841e-17
4.841894829594024e-17
6.476962862932559e-17
8.597530817761696e-17
1.1544576313651235e-16
1.6028780313494294e-16
2.35008515047194e-16
3.6788407927592595e-16
6.111528070768106e-16
1.0567728068668373e-15
1.8608306819365405e-15
3.282363572682997e-15
5.746828037001205e-15
9.950629789269753e-15
1.7029706706520147e-14
2.8818810608028884e-14
4.822289875695812e-14
7.969929791392071e-14
1.297989214778627e-13
2.0762825797693123e-13
3.2497007553129327e-13
4.956569991824427e-13
7.336838226756805e-13
1.0496056290458227e-12
1.4452950152826692e-12
1.9087485410770576e-12
2.4146240348705604e-12
2.9451076216351315e-12
3.5644470160895245e-12
4.618120657058909e-12
7.20044215472431e-12
1.4170891841994616e-11
3.2248037702152085e-11
7.615068500368724e-11
1.7651723543987448e-10
3.946130864140187e-10
8.489167610886286e-10
1.7619343771548277e-09
3.54045890796756e-09
6.9093269857805684e-09
1.3127563605754737e-08
2.432589763532306e-08
4.4013817016199595e-08
7.780832107496542e-08
1.344284068629515e-07
2.2696984037803163e-07
3.7441410620231927e-07
6.032273142632519e-07
9.487731382509757e-07
1.4561209267509494e-06
2.179724076758947e-06
3.1814495505672085e-06
4.526647068651142e-06
6.278430447861981e-06
8.491112308886861e-06
1.1204669568828188e-05
1.4442932408724117e-05
1.821843204804474e-05
2.2545996775350195e-05
2.746487883545276e-05
3.3065480517870126e-05
3.9512360855282095e-05
4.7051630084590115e-05
5.599004166777542e-05
6.663684585921013e-05
7.920843398500735e-05
9.370870013028063e-05
0.00010981141887464197
0.00012677985718054848
0.00014345856849104876
0.00015836040074440112
0.00016984962513065226
0.00017639533040433004
0.000176846009205959
0.00017066452753219702
0.00015806708803218965
0.00014002990414520964
0.0001181575952263594
9.443924770836075e-05
7.094300496344644e-05
4.951182205232508e-05
3.151952521689708e-05
1.7729492639779467e-05
8.273139235453008e-06
2.738509707402265e-06
3.371388002670478e-07
1.0481701774219e-07
1.0911666487430458e-06
2.502921513403535e-06
3.7826238775635176e-06
4.6226919801726905e-06
4.929343663918738e-06
4.7584564210961e-06
4.245555517149194e-06
3.546589992304961e-06
2.7980889226728044e-06
2.0977131710649995e-06
1.5010855050113826e-06
1.0286530276612286e-06
6.766544342705188e-07
4.2794757670920725e-07
2.6045043056845906e-07
1.5257264668466585e-07
8.600253320909157e-08
4.661535618227622e-08
2.4278159308020003e-08
1.2149179902893765e-08
5.853132716569788e-09
2.7328933652062435e-09
1.2559858062968607e-09
5.848069365105747e-10
2.871805582087057e-10
1.537054259616359e-10
8.964035233199034e-11
5.507526434535149e-11
3.420040241947294e-11
2.0824977048595264e-11
1.2228330602468986e-11
6.872578317118615e-12
3.68779128416084e-12
1.8894406864044e-12
9.255979218923172e-13
4.345323552550726e-13
1.9612323229062774e-13
8.549214343420667e-14
3.6232384960865734e-14
1.5074032866991386e-14
6.239532742074862e-15
2.6133525464429975e-15
1.1272164131492002e-15
5.070975029157246e-16
2.3839122893614834e-16
1.1590513666806752e-16
5.727436245749852e-17
2.836792549286639e-17
1.4048646459195634e-17
6.943923608849495e-18
3.36611891248394e-18
1.6534494752649646e-18
9.899479638611043e-19
1.150500625544017e-18
2.333480761670764e-19
1.1394104291623253e-19
1.0179605402556087e-18
2.7229153156012163e-18
5.4767198408930984e-18
1.1626332366636785e-17
2.6552083299943756e-17
5.928892873093017e-17
1.2565696854286256e-16
2.5760790357542143e-16
5.249738718208049e-16
1.0895860000631877e-15
2.351398149555781e-15
5.335609766787301e-15
1.2655539142397159e-14
3.075243847872949e-14
7.478926228868258e-14
1.7874165381049385e-13
4.151622192676964e-13
9.322941170118021e-13
2.0216857942286187e-12
4.23927493000682e-12
8.621264182631187e-12
1.7071684967363126e-11
3.3069926644398304e-11
6.299393878413402e-11
1.1866167633361708e-10
2.2231594789289373e-10
4.1646704110035593e-10
7.83078921640556e-10
1.4797629572067881e-09
2.8047020694055338e-09
5.3057347785185615e-09
9.949638035598401e-09
1.8361112679698112e-08
3.31239096689878e-08
5.811080408439259e-08
9.878848574576657e-08
1.6245860465773647e-07
2.5849108847062973e-07
3.988165846021369e-07
5.992590938240521e-07
8.825980533655345e-07
1.2843195794547156e-06
1.8615364890642398e-06
2.7042691745454124e-06
3.946199460706317e-06
5.769634443779713e-06
8.397790400581207e-06
1.2067998883970577e-05
1.698320010411052e-05
2.3246309152679653e-05
3.0791303747531e-05
3.9333057222617376e-05
4.836090879580709e-05
5.719519193729202e-05
6.511043439086097e-05
7.150668136041258e-05
7.608830774277067e-05
7.89966621656625e-05
8.08462358963125e-05
8.263585507093236e-05
8.55415713702039e-05
9.063531374745396e-05
9.859975556301388e-05
0.00010951532687338693
0.00012277739870982966
0.00013716640007937616
0.0001510529087984041
0.00016268652631354737
0.00017050075981494807
0.00017336884513690702
0.00017076379578386694
0.0001628024550272704
0.000150179841615155
0.0001340204339924004
0.00011568412887931741
9.656623596831353e-05
7.792483211394923e-05
6.075788625481087e-05
4.5739775450997994e-05
3.321482824564631e-05
2.3236392277013616e-05
1.5634791005919836e-05
1.0096595168228606e-05
6.2401817446877076e-06
3.677272881074507e-06
2.055529827786817e-06
1.0820251607194016e-06
5.307201898992454e-07
2.386896386476677e-07
9.598483218988677e-08
3.319678221955025e-08
9.51107565836913e-09
2.774447573509761e-09
2.0826271430369117e-09
2.745571903970253e-09
3.1630495322625105e-09
3.0623573745662337e-09
2.610188070026139e-09
2.029333316194982e-09
1.4739346626605906e-09
1.0172812372638284e-09
6.760340835324292e-10
4.373662252547633e-10
2.7814678159876496e-10
1.7538995026935571e-10
1.1048633739047797e-10
6.996251530991664e-11
4.47325305246084e-11
2.8952536685870622e-11
1.8978745959567533e-11
1.258136846017454e-11
8.408323392830659e-12
5.640765500960267e-12
3.77977496135223e-12
2.517143741736456e-12
1.6582184973846045e-12
1.0763745166296951e-12
6.864676299505443e-13
4.29494665334014e-13
2.6371699344039135e-13
1.5939442662157684e-13
9.547359558720761e-14
5.732299133819258e-14
3.5054412495809656e-14
2.221782902765161e-14
1.477730848078004e-14
1.0323678990657258e-14
7.491990916732768e-15
5.5510950554225075e-15
4.130335104664528e-15
3.0488263865730405e-15
2.2164993220615623e-15
1.5818423715340795e-15
1.107638659656592e-15
7.618561171699231e-16
5.156245751574761e-16
3.4373869031478427e-16
2.254605742894079e-16
1.4479347894729507e-16
9.01257843858363e-17
5.34456055498243e-17
2.9389550947557245e-17
1.43429755369709e-17
5.728439442605631e-18
1.5398876325245594e-18
1.152313200159084e-19
9.294670021509761e-20
4.708238317064392e-19
6.793506221231325e-19
5.990723572519338e-19
4.866678967293408e-19
8.185559041075753e-19
2.099598605157948e-18
4.704240455328286e-18
8.81021308601897e-18
1.4452617824376088e-17
2.168184105185894e-17
3.077434899002753e-17
4.2445790193170994e-17
5.806972827335801e-17
8.001550145835288e-17
1.1236529384825746e-16
1.6241361696573875e-16
2.434510772040822e-16
3.7938648906315276e-16
6.118619986539313e-16
1.01091620417995e-15
1.691383366031951e-15
2.8396343321863694e-15
4.759419261238564e-15
7.951387549787137e-15
1.3247078002331967e-14
2.2021552629466686e-14
3.6503450327872143e-14
6.017818173402657e-14
9.822827663378424e-14
1.578640685951579e-13
2.482635745605464e-13
3.796745663923876e-13
5.61081588119823e-13
7.95824013088094e-13
1.0749258830502948e-12
1.3691942947036023e-12
1.6244107175873013e-12
1.771195745525422e-12
1.7761347047602074e-12
1.7903444436160345e-12
2.5079822841288118e-12
5.951415551620734e-12
1.7088164398849627e-11
4.7018263147351455e-11
1.1904902267664885e-10
2.799538503110072e-10
6.203246009450016e-10
1.3104875376577327e-09
2.66233281000008e-09
5.232937408940655e-09
9.993113966368542e-09
1.859241853950944e-08
3.37599123660144e-08
5.988343124527281e-08
1.0380322189092606e-07
1.7583024922900066e-07
2.9094615997118663e-07
4.7005446908596285e-07
7.410335181376053e-07
1.139210482715084e-06
1.7067759512213647e-06
2.49066105673764e-06
3.538592282424807e-06
4.893501831039906e-06
6.587225655956313e-06
8.635371123548112e-06
1.103611728210218e-05
1.3776083863506591e-05
1.6845737455417494e-05
2.0264658092724884e-05
2.4113305123546042e-05
2.8563289246112997e-05
3.3893950779949565e-05
4.048122968449862e-05
4.874736466218902e-05
5.9067957951810564e-05
7.164567384541128e-05
8.637434573569983e-05
0.00010272878107780855
0.00011971892051035001
0.00013593873195141454
0.00014972033974540515
0.00015937673571606533
0.0001634896995808392
0.00016118188527839444
0.00015230982593974503
0.0001375296347350804
0.00011821576301113091
9.624743757733006e-05
7.370788104323199e-05
5.256008284957594e-05
3.4365372108201335e-05
2.009759042069627e-05
1.0080668040268538e-05
4.047926099515575e-06
1.2951554334286179e-06
8.827395868894466e-07
1.8380619566742017e-06
3.3176883866531175e-06
4.705523557520324e-06
5.642560917245089e-06
6.000296554629606e-06
5.819511323079049e-06
5.23786990222229e-06
4.4251593748467685e-06
3.537039377916275e-06
2.690098881655273e-06
1.9550741476227992e-06
1.3621543789115247e-06
9.120517666596219e-07
5.879388951068624e-07
3.653671151098427e-07
2.190778114738361e-07
1.2682683104054558e-07
7.09294509650147e-08
3.835865651092149e-08
2.0099779260979527e-08
1.0247056058216633e-08
5.122307398631437e-09
2.543812746846969e-09
1.278914865165616e-09
6.647863835886588e-10
3.625293428826995e-10
2.0727980357676187e-10
1.2229670969691346e-10
7.280126897269141e-11
4.284577888374938e-11
2.4572363248149317e-11
1.3611147734685567e-11
7.246160474756357e-12
3.698460858885247e-12
1.8081262712504421e-12
8.46803137541868e-13
3.803428396444962e-13
1.6425844288321146e-13
6.855461916384817e-14
2.791101655051276e-14
1.1266786845281701e-14
4.622840663509538e-15
1.9872332864160147e-15
9.163251783093606e-16
4.542541742425244e-16
2.372861057079922e-16
1.2697497545001686e-16
6.808850824355645e-17
3.617107577243966e-17
1.8940072073045535e-17
9.774171867891683e-18
5.043156478817862e-18
2.604460412557278e-18
3.2880452619672156e-18
1.376001222104759e-18
9.58865424652764e-19
1.2879785080238133e-18
1.512135492847803e-18
1.7204929917663584e-18
3.504918026698543e-18
9.204032622297359e-18
2.1185499571721253e-17
4.3198848445709604e-17
8.402249633883978e-17
1.633843787394913e-16
3.274727945897601e-16
7.015500520970717e-16
1.6505801530224662e-15
4.213436634958338e-15
1.1177357168425152e-14
2.9551850477094605e-14
7.591108017736559e-14
1.8731901633420341e-13
4.4277763238481224e-13
1.0042949542102067e-12
2.1947218581140453e-12
4.645334081663856e-12
9.57720194094013e-12
1.9341192860248063e-11
3.846084036875574e-11
7.565720624566944e-11
1.4779000333237484e-10
2.874923585646014e-10
5.577178681857245e-10
1.0785969376007992e-09
2.074706351724802e-09
3.953080808835178e-09
7.4217630562132265e-09
1.3651929409554577e-08
2.4470518708153226e-08
4.254605728069791e-08
7.150989065146413e-08
1.1596662247327901e-07
1.8143465875847582e-07
2.7446195839256916e-07
4.034860181219586e-07
5.813654092588124e-07
8.306958261218363e-07
1.1927305636912691e-06
1.739661040679378e-06
2.5880957086684076e-06
3.909149687748814e-06
5.928502169606457e-06
8.9093780967477e-06
1.3113915133834949e-05
1.8744328119956832e-05
2.5873844796592145e-05
3.438604645726831e-05
4.394623969860863e-05
5.40260621830838e-05
6.399078681578329e-05
7.323933569001709e-05
8.136544756093953e-05
8.82930006446226e-05
9.433694366912757e-05
0.00010015720825945316
0.00010660324430925624
0.00011448189748098278
0.00012430866072314368
0.00013611143564580959
0.00014934303837191588
0.0001629282658502857
0.00017543413956158392
0.00018532033739307755
0.00019120994830951988
0.00019212152960729765
0.0001876188898862753
0.0001778582125496313
0.00016353568061261122
0.00014575716677092416
0.0001258621640281154
0.00010523679391085502
8.514682079082692e-05
6.661316335914425e-05
5.0341626781854945e-05
3.67076175096021e-05
2.5787353264759207e-05
1.7420974440557056e-05
1.1290684467340906e-05
6.998392198754009e-06
4.131314984354526e-06
2.3092057975417763e-06
1.211879787817561e-06
5.895079821772994e-07
2.6026023141577726e-07
1.0039521829544315e-07
3.124774065356378e-08
6.313549414070035e-09
2.7636588841160895e-10
6.885818935061741e-10
2.24913370022869e-09
3.2169618123898005e-09
3.37260978672425e-09
2.9860498402293054e-09
2.371440819516721e-09
1.7447104768440695e-09
1.213464946991158e-09
8.094618127831906e-10
5.238321798117067e-10
3.3208923452516187e-10
2.0805615447349738e-10
1.2984186499284277e-10
8.128615682230504e-11
5.1348562832247714e-11
3.286860833265963e-11
2.1364737222183157e-11
1.4098383275479353e-11
9.420989963941877e-12
6.347502759203488e-12
4.289175767791501e-12
2.890793424660976e-12
1.933584399565443e-12
1.2784316385855647e-12
8.333033085247617e-13
5.349049436290856e-13
3.3842299059778336e-13
2.116915896360017e-13
1.3167624643544898e-13
8.213838918819014e-14
5.19191762881454e-14
3.3594309855533756e-14
2.240221613367315e-14
1.5406306723305636e-14
1.0865478530415399e-14
7.784005042618696e-15
5.607040019480393e-15
4.026608655385022e-15
2.8658039550542206e-15
2.0145107609491467e-15
1.396572057313857e-15
9.545338684422828e-16
6.432055101750805e-16
4.2701510241026705e-16
2.7862230056250665e-16
1.7772868320695845e-16
1.0979793512831496e-16
6.472785566145531e-17
3.56058552116668e-17
1.766177786564986e-17
7.480744242116231e-18
2.4871112647269145e-18
6.685621131558453e-19
4.784883827682635e-19
8.369227325161749e-19
1.1487404485361108e-18
1.2751126731968778e-18
1.4280201370094927e-18
1.9993718506837316e-18
3.3725573201968394e-18
5.781672515421604e-18
9.274413260183642e-18
1.3800963149119756e-17
1.9406558132090915e-17
2.647145511686865e-17
3.594170195650654e-17
4.9542027629497864e-17
7.005525033870065e-17
1.018651392487252e-16
1.5204865026837743e-16
2.323295376524352e-16
3.6217203909714594e-16
5.733000061956859e-16
9.16219590686912e-16
1.4703132002415899e-15
2.361273153786104e-15
3.7934754272111474e-15
6.11029600252017e-15
9.901204437449871e-15
1.617775756872745e-14
2.6635825116483174e-14
4.4000070240966274e-14
7.239815935615125e-14
1.1762575948722328e-13
1.8703381893043901e-13
2.8860682559171207e-13
4.286472794733486e-13
6.074437767107998e-13
8.126034738994511e-13
1.0108190775973609e-12
1.1415571046464148e-12
1.1220446654690808e-12
8.847810151968314e-13
4.915464033419579e-13
4.1020478129014647e-13
2.1176786688573293e-12
9.33071731267502e-12
3.0410878084082474e-11
8.2917741383808e-11
2.0201790296772939e-10
4.5568408326321516e-10
9.716000852704567e-10
1.9837417553243992e-09
3.911031317693214e-09
7.486364414066981e-09
1.396126208474972e-08
2.541795912693696e-08
4.522383624422325e-08
7.865753134772802e-08
1.3371447901087905e-07
2.220536683625589e-07
3.599707114264326e-07
5.691758883576368e-07
8.770355487866282e-07
1.3158394965072606e-06
1.920650488772525e-06
2.725459499044702e-06
3.757793656299448e-06
5.032638111635366e-06
6.54746867993831e-06
8.28111855184845e-06
1.0199709958552424e-05
1.2272440302130378e-05
1.4498137482734753e-05
1.694001613245525e-05
1.9761399933474707e-05
2.325052814268318e-05
2.7819820720747134e-05
3.3966214909262776e-05
4.218584384834683e-05
5.2848262039956424e-05
6.605029595579315e-05
8.148303087938824e-05
9.83521492176665e-05
0.00011538752050664711
0.00013096132107713398
0.00014330794807280604
0.00015081039128724764
0.0001522952676715446
0.0001472700915798221
0.00013604535140480914
0.0001197089755183493
9.995515800774326e-05
7.880375706513173e-05
5.827121435994941e-05
4.006279783745629e-05
2.5347274841830975e-05
1.4652114014663551e-05
7.886913616337098e-06
4.473392832101468e-06
3.539442596591496e-06
4.126890959618558e-06
5.36821136740194e-06
6.602990068731112e-06
7.424785851424555e-06
7.6669694333511e-06
7.347767541827942e-06
6.5983628560227955e-06
5.594567078105165e-06
4.505131873506372e-06
3.4614606538561806e-06
2.5468639556759792e-06
1.7997704034032463e-06
1.224400350855613e-06
8.034659623000355e-07
5.093898440626596e-07
3.1244998479032384e-07
1.8566928057092326e-07
1.0704869988407759e-07
6.00032903957865e-08
3.27963285566846e-08
1.756130720026795e-08
9.277412552934017e-09
4.883112666662001e-09
2.5914513278534408e-09
1.4027015837954534e-09
7.798529621379283e-10
4.449492356064278e-10
2.582578887168148e-10
1.504815559230451e-10
8.683289869232165e-11
4.905783762096388e-11
2.6908258244486465e-11
1.4244988267931991e-11
7.249257162809035e-12
3.536436170945453e-12
1.6504771761376975e-12
7.359348404530721e-13
3.1338818629011906e-13
1.2765992160471708e-13
5.00637888173043e-14
1.9217444244264966e-14
7.477912219005591e-15
3.1195376453912524e-15
1.4706474814770989e-15
7.867413940317016e-16
4.553764107606421e-16
2.699358022133981e-16
1.5836138417991723e-16
9.06285354169186e-17
5.0412441071193127e-17
2.728630260881084e-17
1.4372931142448765e-17
7.233592565411186e-18
1.073485042407264e-17
5.550249072066981e-18
3.3347322922190808e-18
2.160028076057318e-18
9.855795229523078e-19
1.8329675142294673e-19
9.089930645658437e-19
3.702661209834147e-18
8.221214476124456e-18
1.4829332052742502e-17
2.6208164732589948e-17
4.742465976494691e-17
8.823392770461766e-17
1.8127073753378097e-16
4.486354041886081e-16
1.2958541743440495e-15
3.921569243963846e-15
1.1553201883218805e-14
3.222715242820147e-14
8.467092398353273e-14
2.102397922126498e-13
4.966539907834134e-13
1.1250849253435212e-12
2.4642273167004e-12
5.25964306938196e-12
1.1015552837539438e-11
2.276123091560061e-11
4.657609348468065e-11
9.458918228256399e-11
1.9078414185659933e-10
3.819691103854663e-10
7.577897219815206e-10
1.4854724175268159e-09
2.8662323353801223e-09
5.419043785661789e-09
9.99072812598444e-09
1.7876130879910464e-08
3.090911032177732e-08
5.1464068885329615e-08
8.231422474080671e-08
1.2636824949981774e-07
1.8649573985974372e-07
2.6596892136891646e-07
3.7043083960018826e-07
5.125715674339358e-07
7.205684304536261e-07
1.0505193202710731e-06
1.6014180754289526e-06
2.528893991619846e-06
4.051662765855237e-06
6.443548083234453e-06
1.0005274682620696e-05
1.5014787143868041e-05
2.1662291888896263e-05
2.998470807228204e-05
3.9820523111055986e-05
5.0806506065497384e-05
6.242981296591318e-05
7.413306762449777e-05
8.545015982138932e-05
9.613398954671185e-05
0.00010623193478245823
0.00011607509731589005
0.00012617208859736452
0.00013702952590092238
0.00014894801900484429
0.00016185379216903016
0.00017521748521051649
0.00018808624702496875
0.00019922245112701038
0.00020731373348094638
0.0002112032949207954
0.000210089462384226
0.0002036564978516002
0.00019211829433296785
0.00017617635419245198
0.00015690878165549728
0.00013561610308148722
0.00011365274770254424
9.227108968525516e-05
7.249932520522093e-05
5.506634944809677e-05
4.037754275263749e-05
2.8536530888384143e-05
1.9401138969133133e-05
1.2658100033450281e-05
7.900997820794123e-06
4.698886123882994e-06
2.647804597107244e-06
1.4025334395748903e-06
6.901609365956951e-07
3.0967981277906555e-07
1.2277835955295973e-07
4.0599716588866306e-08
1.0068881299681024e-08
1.980742996904568e-09
1.798406096126012e-09
3.2264254565926843e-09
4.127900131162175e-09
4.174032150646556e-09
3.6376519073473593e-09
2.8635583952901857e-09
2.0931368031949316e-09
1.4466158783769436e-09
9.578411442708394e-10
6.140609392099124e-10
3.84703059999654e-10
2.37571688658701e-10
1.4584020081793617e-10
8.973215306709641e-11
5.576302532400298e-11
3.5224499375402746e-11
2.270960496378947e-11
1.4956520703781072e-11
1.0037818286984958e-11
6.8296819968101124e-12
4.680127292484093e-12
3.20852972418746e-12
2.187869885833714e-12
1.4774194289997707e-12
9.853327749791735e-13
6.484231012178932e-13
4.2142855412796566e-13
2.7126154897368553e-13
1.7372478921818727e-13
1.1138574742660994e-13
7.199671572935502e-14
4.721472297984974e-14
3.154423324573197e-14
2.148498142594621e-14
1.4875492090819404e-14
1.0413573291728912e-14
7.325127111943194e-15
5.1480152727634946e-15
3.598813730654709e-15
2.495166773968354e-15
1.712876873464403e-15
1.1631625384848056e-15
7.807519284276442e-16
5.173425926159134e-16
3.375266241196214e-16
2.1582103190687527e-16
1.342643880358202e-16
8.041610397837895e-17
4.572853776508178e-17
2.4286555126352634e-17
1.1896014607712581e-17
5.482630978982518e-18
2.7445786830249033e-18
1.987710126825853e-18
2.0639811622316626e-18
2.33642449350665e-18
2.6117863321383657e-18
3.013935041123134e-18
3.809911002131536e-18
5.233631971139882e-18
7.36720414057401e-18
1.0129429810076092e-17
1.3388116261924681e-17
1.7170402571980663e-17
2.1913803510593347e-17
2.869998720217384e-17
3.945376350047628e-17
5.716384525070236e-17
8.626161786461791e-17
1.3333837035880195e-16
2.0835762607220666e-16
3.2643927187384503e-16
5.102577763267557e-16
7.933398269314573e-16
1.2254401132332202e-15
1.8831754720960602e-15
2.8925797614858883e-15
4.4751608123926725e-15
7.0344178721757675e-15
1.1303027493779264e-14
1.856715851948898e-14
3.096612133054257e-14
5.1823148947557576e-14
8.588695521250273e-14
1.3924923875947962e-13
2.18560201912151e-13
3.2903228660479415e-13
4.706979853740972e-13
6.326666914304628e-13
7.860748919605761e-13
8.78699272954811e-13
8.38945861852855e-13
6.061080265678441e-13
2.207950666640749e-13
4.018454828127002e-14
1.1976996929024594e-12
6.524511262350799e-12
2.232405527902839e-11
6.169813789551468e-11
1.5066014394230866e-10
3.391875985845749e-10
7.20878058248416e-10
1.467249302786131e-09
2.886234801558667e-09
5.519189931181595e-09
1.0296447170959735e-08
1.8777002939783542e-08
3.350077085870121e-08
5.847760821600077e-08
9.981963510719157e-08
1.6648465986763925e-07
2.710324916149899e-07
4.3020212833400337e-07
6.650084693587736e-07
9.999646912995105e-07
1.461018126825961e-06
2.071922327293382e-06
2.8491380650842754e-06
3.7960086700088863e-06
4.897847826769933e-06
6.120521160357244e-06
7.415729753635056e-06
8.736006805621529e-06
1.0060907122333824e-05
1.1432728675626836e-05
1.2995606862965804e-05
1.5026959149468433e-05
1.7946755205226633e-05
2.229002860504858e-05
2.8633130152336295e-05
3.747483950583076e-05
4.9087943986762456e-05
6.337145222757178e-05
7.974309527714349e-05
9.711138439682919e-05
0.00011395380958928637
0.00012850422701553342
0.00013902367398413077
0.00014410308519966083
0.00014293205858401881
0.0001354704230636473
0.00012247935361730977
0.00010540118874192506
8.611302897188666e-05
6.660862993336344e-05
4.867807895190501e-05
3.3651684503834e-05
2.22551130311346e-05
1.4593278424347275e-05
1.0249439900501103e-05
8.461735647530123e-06
8.327610087268326e-06
8.988784893812247e-06
9.762923270269576e-06
1.0207436618417652e-05
1.0119711497989337e-05
9.491423716133709e-06
8.44020323980987e-06
7.140182961700417e-06
5.766394296204746e-06
4.459776614314146e-06
3.312470312590729e-06
2.3685917936132784e-06
1.6340837630048112e-06
1.0898243035175252e-06
7.039254554556586e-07
4.41115170885108e-07
2.6867662695978466e-07
1.5939043264325038e-07
9.233311059262976e-08
5.240357866293972e-08
2.926830142071282e-08
1.6179814973024565e-08
8.915283392248805e-09
4.933393309626039e-09
2.7593862182311996e-09
1.5653798337182406e-09
8.996929582058957e-10
5.209696493612506e-10
3.013356390167138e-10
1.7245330133414837e-10
9.678637832437929e-11
5.287117927142828e-11
2.7941861941422896e-11
1.4216328685847999e-11
6.9339773419509534e-12
3.2293772430402935e-12
1.4303047484632206e-12
5.998255576410975e-13
2.371787112865311e-13
8.825392272306216e-14
3.1142313680347465e-14
1.0826989258648778e-14
4.1154105407275264e-15
1.973697712059798e-15
1.2074873123636072e-15
8.219108305159223e-16
5.579503141014572e-16
3.626887149654251e-16
2.2419322255115113e-16
1.3226956931125107e-16
7.487360640440929e-17
4.076904026798939e-17
2.1303021814468666e-17
3.348077596210728e-17
1.7842758685702743e-17
9.59919048071628e-18
4.757675659140651e-18
1.6644135487489322e-18
3.4040282572533503e-19
8.973663300333901e-19
2.414053404859868e-18
3.6719875477267905e-18
4.8426221908412325e-18
7.605039572117623e-18
1.3053016742785835e-17
2.0806140328137082e-17
3.621117677059246e-17
9.883094708342656e-17
3.6850338421669095e-16
1.3661912286687601e-15
4.589808342757648e-15
1.3947107747037717e-14
3.885335386721471e-14
1.0064092436732287e-13
2.456311708336456e-13
5.720172970409015e-13
1.2861781277504767e-12
2.8222753938446257e-12
6.096400483094565e-12
1.3040186907813835e-11
2.769937237574749e-11
5.844317388108327e-11
1.2229147813977448e-10
2.5312388340911665e-10
5.166284575382107e-10
1.0360919630485435e-09
2.0338003597101577e-09
3.891263705426571e-09
7.225035573629708e-09
1.2960776025034215e-08
2.236638533058848e-08
3.698355536428087e-08
5.839820572438627e-08
8.785252031586611e-08
1.2586963302726654e-07
1.7235972207774933e-07
2.2806150951041942e-07
2.98498943444858e-07
4.016439825112442e-07
5.798762823346464e-07
9.154254873060547e-07
1.5463650834221174e-06
2.6779196230224154e-06
4.582295235144336e-06
7.58059409443563e-06
1.200353121624482e-05
1.813373123648168e-05
2.6140155221975112e-05
3.6022136723989276e-05
4.7583242302131106e-05
6.045085927486127e-05
7.414534235741426e-05
8.818538562103868e-05
0.00010219995442724367
0.00011600887104829547
0.00012963932001519235
0.00014326441423947347
0.00015707668858526978
0.00017113388200353573
0.00018522665590419522
0.00019881275283934334
0.0002110415397284495
0.00022086510544497574
0.00022720751419202305
0.00022915040898080028
0.00022609344319378085
0.00021785910588830682
0.00020472755017957449
0.0001874023864024799
0.0001669197317451166
0.0001445194039728771
0.00012149984334181901
9.907816347427057e-05
7.827414651579832e-05
5.983209465077965e-05
4.418753846111665e-05
3.1477881626996454e-05
2.15887465264282e-05
1.4222749984284275e-05
8.975736595587535e-06
5.407159524464835e-06
3.095391311923182e-06
1.6738073942401742e-06
8.480852341566059e-07
3.983446611752505e-07
1.7120050172069599e-07
6.673514422932173e-08
2.4363857024018003e-08
1.0149614038118762e-08
6.788024988842478e-09
6.484236117332065e-09
6.350948320013953e-09
5.712438797213924e-09
4.691002287451776e-09
3.565893498126649e-09
2.5449781393502707e-09
1.7255452281275728e-09
1.1223581414047882e-09
7.063233821870398e-10
4.3354785736943785e-10
2.6169432463190156e-10
1.5672054646068198e-10
9.403073982563636e-11
5.71087826012622e-11
3.544968604786018e-11
2.2647430855696905e-11
1.4924859700771665e-11
1.0114262052106683e-11
6.996921830875389e-12
4.89584476485438e-12
3.4343478367366312e-12
2.397975055342501e-12
1.6583268321000978e-12
1.1326788765931833e-12
7.634759482544594e-13
5.083164512550288e-13
3.351123511079492e-13
2.1958065885231428e-13
1.4367075951882032e-13
9.433164615413949e-14
6.242438954010926e-14
4.1755249553647796e-14
2.8253481609672123e-14
1.931306740719989e-14