# vtk DataFile Version 4.1 
COMMENT
ASCII
DATASET STRUCTURED_POINTS 
DIMENSIONS 300 300 1 
ORIGIN 0 0 0
SPACING 0.020943951023931952 0.020943951023931952 0 
POINT_DATA 90000
SCALARS U double 1
LOOKUP_TABLE default
4.913540502844786e-19
1.0904600723861599e-20
3.141276780739736e-19
1.3374262510336724e-18
2.74019505908598e-18
5.166625447395265e-18
1.1385054820739248e-17
2.7435361306924362e-17
6.714327262255665e-17
1.6631599569483205e-16
4.168247670632426e-16
1.0423117849363127e-15
2.566622432202804e-15
6.1896498685913144e-15
1.462340686127062e-14
3.3954105850208645e-14
7.780145431896472e-14
1.7657652095042157e-13
3.97819648151743e-13
8.899682397291801e-13
1.974263547622818e-12
4.332842902997219e-12
9.38398737869094e-12
2.0012189374836873e-11
4.195301846001909e-11
8.635147913656258e-11
1.743563447450066e-10
3.4512306019215093e-10
6.693057092665287e-10
1.2710218687713416e-09
2.362291481820906e-09
4.294837510826279e-09
7.634333360913841e-09
1.326057348942368e-08
2.2491640693089442e-08
3.721787693914384e-08
6.00085678464603e-08
9.411811973483506e-08
1.4327205052187355e-07
2.1107177284378078e-07
2.998562222772252e-07
4.089542266972071e-07
5.325168233664778e-07
6.575644813550689e-07
7.634632627090625e-07
8.245635173309378e-07
8.178735614748908e-07
7.370531955150179e-07
6.125235637866242e-07
5.353047861037464e-07
6.799683741389759e-07
1.3207566922425857e-06
2.8352433144871564e-06
5.691999402416243e-06
1.0421823662884673e-05
1.757481953289672e-05
2.766675428437271e-05
4.1117503960747624e-05
5.818313436434569e-05
7.888331831651072e-05
0.00010292899114409587
0.00012966131918887617
0.00015801979233453947
0.0001865605223455303
0.00021354185098539698
0.00023708178027261124
0.00025537290991929645
0.00026692127103504845
0.00027076277559063525
0.0002666104605131519
0.0002548987521839843
0.00023671419774017795
0.0002136284201591268
0.00018747039934281196
0.00016008552915443397
0.00013312625982878182
0.00010790584806711997
8.532811039319749e-05
6.588812264467045e-05
4.972612868915559e-05
3.671150851341754e-05
2.6534895386715845e-05
1.8792102760778117e-05
1.3050628017470639e-05
8.895884726498621e-06
5.958753620829931e-06
3.928318288597073e-06
2.554208183836028e-06
1.6424935916115075e-06
1.048177463713927e-06
6.664059281260064e-07
4.23755239683436e-07
2.703850226162374e-07
1.734466972501658e-07
1.118603805900256e-07
7.239177572243463e-08
4.685268742143591e-08
3.020027840832494e-08
1.930669288395205e-08
1.2196850768984248e-08
7.593221967819587e-09
4.6501872729376104e-09
2.799312321278189e-09
1.656826834219468e-09
9.653593217937773e-10
5.54961248544887e-10
3.157983626907581e-10
1.7863384063728047e-10
1.0095342603439943e-10
5.7320518028883225e-11
3.2882042394519854e-11
1.9149932484977043e-11
1.1358958618206446e-11
6.868614650215333e-12
4.226763097509292e-12
2.6359179469984176e-12
1.6557569037894495e-12
1.0400430159211982e-12
6.482027707193662e-13
3.9766756832228166e-13
2.38233405658982e-13
1.3823813838354063e-13
7.705215128331062e-14
4.092496636591254e-14
2.0606969283611803e-14
9.910740039895561e-15
4.7789882781464974e-15
2.6402352952664336e-15
1.943559645199845e-15
1.8174148721468952e-15
1.8218587442330535e-15
1.7737680612291746e-15
1.6289054092184015e-15
1.4070076552475086e-15
1.1480011687091063e-15
8.894747615697908e-16
6.576354347394572e-16
4.6597815785678e-16
3.1767723676350666e-16
2.091684730424702e-16
1.3350932842367277e-16
8.289209700402447e-17
5.018462098006288e-17
2.964296321281356e-17
1.704534256125901e-17
9.497891231656088e-18
5.111188804333059e-18
2.6784060740879736e-18
1.423033773823583e-18
8.365967966189645e-19
5.967833393488753e-19
5.423388637329078e-19
6.79493767062528e-19
1.2015662386711065e-18
2.5143439745153846e-18
5.270562303466394e-18
1.0423677857751096e-17
1.931237293916487e-17
3.3783656636340307e-17
5.635777338695949e-17
9.043811028037857e-17
1.4057945063994315e-16
2.1285034490948115e-16
3.1535535437676947e-16
4.59007565443054e-16
6.586434684087103e-16
9.34540083663493e-16
1.314344103249851e-15
1.8354239643126827e-15
2.5478529553294607e-15
3.5188464719050145e-15
4.840765032471309e-15
6.646933609819362e-15
9.142417761686406e-15
1.2659886947248148e-14
1.7752279206142036e-14
2.5331568138137155e-14
3.6852846725686836e-14
5.452084825956319e-14
8.145803548559475e-14
1.2171830450532444e-13
1.7996418920230185e-13
2.605714578467075e-13
3.659471009459546e-13
4.94104738518403e-13
6.364164786868352e-13
7.788259428029458e-13
9.15590296456285e-13
1.097907744806379e-12
1.5689388112934956e-12
3.098239186521204e-12
7.753946097010882e-12
2.0598144084769818e-11
5.3262499998423194e-11
1.3123233532580957e-10
3.0822027454160714e-10
6.936734728883939e-10
1.503826364950641e-09
3.1535129406922485e-09
6.415898093405535e-09
1.269070336533601e-08
2.443767218165999e-08
4.584819754219015e-08
8.383826309923241e-08
1.4943998627451617e-07
2.5963278562313693e-07
4.3957208090600527e-07
7.250299895184963e-07
1.164656600891575e-06
1.8214217863555417e-06
2.772356443549635e-06
4.1055609980934424e-06
5.913490585972055e-06
8.281855577691657e-06
1.1274140336128956e-05
1.4912703986830248e-05
1.9158544231783756e-05
2.3892859251330716e-05
2.890429685741709e-05
3.388605729395369e-05
3.8446743869718356e-05
4.213803576226301e-05
4.450085964377505e-05
4.512958421207685e-05
4.375053152813986e-05
4.030655105618705e-05
3.503382620342196e-05
2.8511762196330815e-05
2.166413076095778e-05
1.5692548246946985e-05
1.1933984133669367e-05
1.1652073010929755e-05
1.5793784965123578e-05
2.476161379292241e-05
3.825899157171267e-05
5.525758581704709e-05
7.410932676148338e-05
9.278981318403055e-05
0.0001092243151901765
0.0001216247639193027
0.00012876365669460064
0.00013012926484830858
0.00012593917893613882
0.00011702499577112365
0.00010462890973901353
9.01662126187132e-05
7.500511406419852e-05
6.0300802716977275e-05
4.690084223397934e-05
3.5320282117805266e-05
2.5771625271674916e-05
1.8228635109797994e-05
1.2503141143660326e-05
8.318413909293545e-06
5.3689056229350115e-06
3.362189295112114e-06
2.0435442234397948e-06
1.2063867254108786e-06
6.927875878730499e-07
3.8813709446062877e-07
2.131780385910493e-07
1.1559542387060467e-07
6.242518431690597e-08
3.3851419432954235e-08
1.8512320064862263e-08
1.0181358225689778e-08
5.572532869499355e-09
2.9870917947789936e-09
1.5394979447127396e-09
7.484207269721822e-10
3.36428440241186e-10
1.3676325531443038e-10
4.906734224657801e-11
1.54073289802941e-11
4.8161894407635534e-12
2.448420643468414e-12
2.1867959945613917e-12
2.053013905149903e-12
1.699484349577155e-12
1.2403875471233913e-12
8.168008909662491e-13
4.951181527148857e-13
2.8058415884467356e-13
1.5050145220286802e-13
7.721713635996111e-14
3.826064385268363e-14
1.8476932049084804e-14
8.773085014445416e-15
4.128689939867818e-15
1.9386252006821124e-15
9.122756481926275e-16
4.3103698889072105e-16
2.044831748463173e-16
9.736656759390285e-17
4.646605857735991e-17
2.2043520845667606e-17
1.0264061934267976e-17
4.792881997126835e-18
2.4542331617609296e-18
1.3314117339521093e-18
1.1902805511729491e-18
4.448653458820868e-19
5.52075275761685e-19
8.415812264213578e-19
8.469193661862783e-19
1.0451579116767835e-18
2.6617318881346045e-18
7.21071254115248e-18
1.813799523391381e-17
4.682158602871501e-17
1.2539628591083887e-16
3.3399705880553353e-16
8.631779614133383e-16
2.1574141254150865e-15
5.240600443703115e-15
1.2461699368953871e-14
2.9233548292458736e-14
6.810255818903412e-14
1.5814245949323475e-13
3.6611283246180436e-13
8.427929475710011e-13
1.9216698415510085e-12
4.3238209420725795e-12
9.573289898793895e-12
2.081983496036338e-11
4.4429080525092554e-11
9.297412662228549e-11
1.9069863485343866e-10
3.831738011615239e-10
7.537782349750709e-10
1.45076723934589e-09
2.7298951919129728e-09
5.0183417100496005e-09
9.005070875156977e-09
1.5758920441302266e-08
2.6865901642704197e-08
4.455798923411343e-08
7.177463156592927e-08
1.1205740900400683e-07
1.6914027843724227e-07
2.4609206195180787e-07
3.439420754283197e-07
4.5992862970352806e-07
5.858829852654764e-07
7.077533560328795e-07
8.077220287793136e-07
8.704962741676802e-07
8.948584083131613e-07
9.102918664328295e-07
9.96651145219121e-07
1.303020327355454e-06
2.0609536120199444e-06
3.5878750138080786e-06
6.278529817977154e-06
1.058513549378416e-05
1.6988799602367853e-05
2.596461431874836e-05
3.794052268727477e-05
5.324710492589446e-05
7.205447697788572e-05
9.429585899497405e-05
0.00011958547128184966
0.00014714883172088563
0.0001757915238604562
0.0002039329549174281
0.0002297215720499944
0.000251228584408306
0.00026669388494108675
0.00027477854522907916
0.00027477035879327057
0.000266696170534198
0.0002513155750943314
0.00022999861581905577
0.00020451663775697317
0.0001767926506265055
0.00014866130125594095
0.00012167942629636173
9.701064626181612e-05
7.5387831750652e-05
5.71411510686727e-05
4.227010371700553e-05
3.053595757199469e-05
2.1554642505456486e-05
1.4876700283870035e-05
1.0047783715624584e-05
6.648730836548107e-06
4.31773775604895e-06
2.7587430714485196e-06
1.7403546667009382e-06
1.0890994553945313e-06
6.799283848948794e-07
4.2604553974120957e-07
2.693814155676601e-07
1.7243563482449805e-07
1.1177263790502032e-07
7.315108853245672e-08
4.808524573744091e-08
3.1552031945976484e-08
2.054529086207036e-08
1.3212218473199014e-08
8.362343868818058e-09
5.198628258362027e-09
3.1720457488920994e-09
1.9005014583213086e-09
1.1197680001538229e-09
6.504444589123859e-10
3.737851910573863e-10
2.1342733444164192e-10
1.2169760760123592e-10
6.967313506223961e-11
4.026114306295603e-11
2.3587599931482426e-11
1.4052362129457082e-11
8.520874308920344e-12
5.251621613136164e-12
3.2782928181564535e-12
2.061983965068213e-12
1.298622829618485e-12
8.134302347311283e-13
5.033702918479395e-13
3.0580138807517953e-13
1.813602602289999e-13
1.0455243145383148e-13
5.849851663907932e-14
3.191169026399239e-14
1.7272961946642955e-14
9.659371300553401e-15
5.944390476792932e-15
4.228314439927481e-15
3.425459919419654e-15
2.9672279162869054e-15
2.5942142202895483e-15
2.21676938007638e-15
1.8267798783888432e-15
1.4461219919171586e-15
1.0998964322658095e-15
8.052105639937433e-16
5.687671465596556e-16
3.8868121995190257e-16
2.5768657020441006e-16
1.661888347120857e-16
1.0450649253899179e-16
6.418004118769975e-17
3.8505669985209856e-17
2.254612863808769e-17
1.286200104557938e-17
7.148251213319774e-18
3.891545970852933e-18
2.1039324403534392e-18
1.1456528874748887e-18
6.24514434264659e-19
3.484811940399904e-19
3.0844787540750146e-19
6.758175054110829e-19
1.810654569581751e-18
4.2867357674892284e-18
8.946126507390332e-18
1.6995866562337745e-17
3.0153416528160794e-17
5.0839019503628105e-17
8.240731173321125e-17
1.294122613063812e-16
1.9791021091822592e-16
2.958205021927873e-16
4.333700822849175e-16
6.236333347989557e-16
8.831355461188141e-16
1.2324394339446972e-15
1.6966498324795976e-15
2.305989408935034e-15
3.0972202510381175e-15
4.117937623723898e-15
5.437789004375253e-15
7.17335919211757e-15
9.536177114380775e-15
1.2914584907471898e-14
1.7997516041719295e-14
2.5937818577575653e-14
3.852997034700374e-14
5.833717651224434e-14
8.864319905417141e-14
1.3302827518358833e-13
1.9429479492961185e-13
2.724513741093527e-13
3.6163984551073403e-13
4.4657830752912656e-13
5.010128497071893e-13
4.953737281311137e-13
4.315618075951466e-13
4.4610883365410396e-13
1.0717445880182374e-12
3.846253218794405e-12
1.2651971811213324e-11
3.65410912434594e-11
9.549210120322718e-11
2.3178355974768343e-10
5.318234592026738e-10
1.1668537498234601e-09
2.4666263742449945e-09
5.048633423984512e-09
1.003726076081539e-08
1.942206150662346e-08
3.662036226979633e-08
6.732208734291463e-08
1.2069573364778236e-07
2.110113795376492e-07
3.5967388072153574e-07
5.975419199029515e-07
9.672285341366688e-07
1.524845027547897e-06
2.340397990445554e-06
3.4958454245617777e-06
5.079756994923912e-06
7.177708377289576e-06
9.858050639361022e-06
1.3153551824748925e-05
1.704053882586221e-05
2.14184083969161e-05
2.6093494996948523e-05
3.0772030635734756e-05
3.506708540879593e-05
3.852375171445296e-05
4.066525349904127e-05
4.105992719729272e-05
3.940496574519232e-05
3.561750108157449e-05
2.99176408414187e-05
2.2882945189653313e-05
1.5451850141131203e-05
8.857302480648495e-06
4.483057661862143e-06
3.653116563693487e-06
7.385905368440089e-06
1.61625523519802e-05
2.9765710712096946e-05
4.723674550755673e-05
6.697463257677248e-05
8.696549201489271e-05
0.00010509764274855302
0.00011949448957823822
0.00012879388082613017
0.00013231864646670138
0.000130112903174296
0.00012285228599378807
0.00011166334258666507
9.790125823043704e-05
8.293447324533088e-05
6.797287771419377e-05
5.395889353586925e-05
4.1523667302200356e-05
3.099782671208668e-05
2.245944349149971e-05
1.580060936481779e-05
1.0796781424472882e-05
7.16785200672218e-06
4.625057314801469e-06
2.902210361421047e-06
1.7727679435231058e-06
1.05584754438848e-06
6.147480348571395e-07
3.51190848456834e-07
1.9777700428350878e-07
1.1034972943553614e-07
6.124151895670718e-08
3.3842404136098265e-08
1.855917700505078e-08
1.0017545247336616e-08
5.256090930422272e-09
2.6390438324100547e-09
1.2442986658229391e-09
5.379008909319248e-10
2.0591224835147527e-10
6.570660309206924e-11
1.5361299734142678e-11
1.959811561551396e-12
7.99856503289336e-13
2.042748248608814e-12
2.7483289030272973e-12
2.6204766692441322e-12
2.0516303130374614e-12
1.4082104455611915e-12
8.77394023510849e-13
5.069901429636998e-13
2.758440783922627e-13
1.4304925361337836e-13
7.149239787273246e-14
3.480858404861077e-14
1.6690797257957482e-14
7.964215954451237e-15
3.8149435893724996e-15
1.8450349149670913e-15
9.026649584790954e-16
4.460757698486399e-16
2.2184871827355947e-16
1.1047812797755795e-16
5.4766555359992297e-17
2.695420506156543e-17
1.3275471673865447e-17
6.576144573565511e-18
3.0915554240836364e-18
3.975451561668194e-18
2.0627625897420886e-18
1.3711062825917194e-18
8.611049682925152e-19
2.57826905123541e-19
5.700225299018731e-20
6.843636349858521e-19
1.9916509620490566e-18
4.465132087453469e-18
1.2087127531763476e-17
3.6575107244374924e-17
1.0616676755632788e-16
2.8815789415070034e-16
7.421967488686831e-16
1.840004846935414e-15
4.44512894176127e-15
1.0601902568720708e-14
2.525345652940253e-14
6.043995359745076e-14
1.4522329910587041e-13
3.4834800376089134e-13
8.283918873935279e-13
1.9419149230767216e-12
4.471673389142057e-12
1.0098445072149801e-11
2.2355065711151576e-11
4.850654828837522e-11
1.031478447264631e-10
2.1486749386452965e-10
4.381604722957069e-10
8.739246266407176e-10
1.7032705294639443e-09
3.2406895515040863e-09
6.0130551455238015e-09
1.0868914319315849e-08
1.9115542527907157e-08
3.2666051900955775e-08
5.4152797558224775e-08
8.692740970593102e-08
1.348317636519299e-07
2.0161239845349896e-07
2.899041146423124e-07
3.9987481573507826e-07
5.279313929088818e-07
6.663009328721268e-07
8.046852057663737e-07
9.352992874757555e-07
1.0621836490369677e-06
1.2145960198657408e-06
1.4627313757857096e-06
1.9325521826812422e-06
2.8159156027895834e-06
4.373038871735738e-06
6.926549040458645e-06
1.084891879246377e-05
1.654641127753183e-05
2.444143006045014e-05
3.495136080229407e-05
4.8457369918408236e-05
6.525430063804458e-05
8.547575718015141e-05
0.00010899770136697935
0.00013533722727252566
0.00016357551645571584
0.00019233912472960737
0.00021986723504051082
0.00024417398517969773
0.00026328906471195546
0.0002755347404915197
0.00027978218407305184
0.0002756303983208403
0.0002634677770280779
0.00024440431271886376
0.00022009290816474053
0.00019248197987234032
0.00016355229506776262
0.00013508726842306136
0.00010851094347773852
8.480764771461132e-05
6.451823753930597e-05
4.7794548330680805e-05
3.448793205251055e-05
2.4248791701838475e-05
1.6619420371278858e-05
1.1109486266800758e-05
7.250012607914972e-06
4.626495714965802e-06
2.894604337158401e-06
1.7830123142388225e-06
1.0878715107140149e-06
6.627514966108527e-07
4.069431263436343e-07
2.540854557857891e-07
1.6225764531333245e-07
1.0603605168770703e-07
7.056490600118694e-08
4.741332818041341e-08
3.186146964474434e-08
2.1234903875611657e-08
1.3948458427238813e-08
8.993391771865307e-09
5.6794913633114464e-09
3.5110316995945634e-09
2.1262258909028235e-09
1.263638503210016e-09
7.39095680351266e-10
4.270499459161303e-10
2.4488910257789653e-10
1.4011732483550632e-10
8.045153197803115e-11
4.661600713109279e-11
2.73897703933894e-11
1.637299738010902e-11
9.969494180127433e-12
6.176155281069329e-12
3.879825601412428e-12
2.459183389232332e-12
1.563461548522691e-12
9.909137982590975e-13
6.224837892461618e-13
3.856739946102459e-13
2.3482935255127896e-13
1.403040301284396e-13
8.241322181570577e-14
4.7950689128583484e-14
2.8082716757857948e-14
1.6992734077459475e-14
1.0954870476242031e-14
7.673562366387133e-15
5.805204352765489e-15
4.614504583340214e-15
3.73423865715013e-15
3.004205420917606e-15
2.3691496985192216e-15
1.8186523288319014e-15
1.355209646181426e-15
9.799204631606107e-16
6.881519030735039e-16
4.700740562744378e-16
3.1293945561610186e-16
2.0342949550758348e-16
1.2935252271148171e-16
8.054896090565193e-17
4.914123696056665e-17
2.9359489171453065e-17
1.7161028748404597e-17
9.803214868077738e-18
5.463896169842897e-18
2.9497494122058775e-18
1.4964445213664327e-18
6.44438058570559e-19
1.6692588725931965e-19
2.861501814793455e-20
3.623245845815993e-19
1.4616062548317958e-18
3.797776212180425e-18
8.075328558231578e-18
1.533835748256892e-17
2.7132537857284865e-17
4.571539323762812e-17
7.429684224624034e-17
1.1728674990809852e-16
1.8052745448693676e-16
2.714924128281838e-16
3.9942727435719517e-16
5.753863190577789e-16
8.120746770702563e-16
1.1233703036345529e-15
1.5234382421142075e-15
2.02558861589667e-15
2.6416466135222912e-15
3.383790013899276e-15
4.272685839235979e-15
5.35820847601257e-15
6.761468530168155e-15
8.747997038199865e-15
1.1839364633872909e-14
1.696076477007423e-14
2.560068658955198e-14
3.9921125044601433e-14
6.269994918849488e-14
9.691391980047308e-14
1.4469825107182532e-13
2.0539497570280215e-13
2.725454141963835e-13
3.3025834029635413e-13
3.5097404867591763e-13
3.004643984990097e-13
1.644577957297034e-13
2.955371020434855e-14
2.8887678346950414e-13
2.118955499452715e-12
8.523649235179308e-12
2.6527341588275404e-11
7.163503191673312e-11
1.766496071473025e-10
4.0864581513812314e-10
9.007895155734529e-10
1.910354780804186e-09
3.92141777660163e-09
7.820881026216678e-09
1.5189779180732705e-08
2.8767107083797313e-08
5.31573869941491e-08
9.58593021684763e-08
1.686804344619345e-07
2.8955828056889334e-07
4.847148360113616e-07
7.909195926884475e-07
1.2574242537560362e-06
1.9468838773374103e-06
2.9343449987526934e-06
4.303243735458089e-06
6.13741871898409e-06
8.508504549307174e-06
1.1458793565831936e-05
1.4980726475025162e-05
1.8995488668275993e-05
2.3334543958109036e-05
2.772905029175733e-05
3.181265146635929e-05
3.514279586768986e-05
3.724418719853785e-05
3.767497176286602e-05
3.6111718520710805e-05
3.24434050421418e-05
2.6858334285850546e-05
1.9902795919046833e-05
1.248863287164603e-05
5.831029390669947e-06
1.309165556685963e-06
2.6007911632568275e-07
3.736467300832263e-06
1.2276142099554241e-05
2.5737678464508283e-05
4.324879487331745e-05
6.329107372892058e-05
8.391218145912235e-05
0.00010302435568225463
0.00011872592622747429
0.00012957811606320965
0.00013478336457081494
0.0001342386452001815
0.00012846844687078673
0.00011846776835107255
0.00010549933933643787
9.088986175894752e-05
7.586021075833182e-05
6.140942145282848e-05
4.8257105996335124e-05
3.683728515730523e-05
2.7329944952321512e-05
1.9714655507915155e-05
1.3832054038686282e-05
9.442385010685656e-06
6.274303258622913e-06
4.060863474833841e-06
2.5625221563707454e-06
1.5788756975136235e-06
9.518016227737804e-07
5.628574670548963e-07
3.274812937466638e-07
1.8797465187222643e-07
1.0662229417967936e-07
5.973358535780674e-08
3.2938659269049813e-08
1.775641451435836e-08
9.263995106182993e-09
4.6163730325054746e-09
2.1603167856101668e-09
9.279296162534955e-10
3.5332915050799203e-10
1.1203356436331784e-10
2.5727940554843915e-11
2.9126214489084118e-12
1.1287319573487662e-12
3.4606455927805543e-12
4.816573775170631e-12
4.666637552925314e-12
3.695600406759513e-12
2.559779398772075e-12
1.6061718759111218e-12
9.32582715915715e-13
5.085836951579206e-13
2.636972975702867e-13
1.3150269198650994e-13
6.385023674608479e-14
3.059291863464692e-14
1.4668202289538992e-14
7.125672501648437e-15
3.535302845406112e-15
1.7940572625338188e-15
9.270764542593155e-16
4.839947791350439e-16
2.5312868103028964e-16
1.3171175987450646e-16
6.79313060598961e-17
3.468734292119091e-17
1.7430040819027543e-17
8.459801351031946e-18
1.1941577704761666e-17
6.280312172788256e-18
3.3761974959918804e-18
1.5778918039611528e-18
4.783874585799274e-19
2.0256094473035707e-19
4.848084023556758e-19
6.5247305356546e-19
7.588421808994221e-19
2.721007583844683e-18
1.0941221926015568e-17
3.4746142251871964e-17
9.711278754046783e-17
2.5432188547664797e-16
6.359635169558082e-16
1.5398377797518208e-15
3.688261157024859e-15
8.926326076328024e-15
2.2046246915632454e-14
5.532488771406596e-14
1.3930998913718847e-13
3.475378239177698e-13
8.517228078647831e-13
2.042791101514007e-12
4.792127589975526e-12
1.1004761771354212e-11
2.476222420025877e-11
5.461479181066265e-11
1.180292622295672e-10
2.497166110176807e-10
5.166396329202587e-10
1.0439586823491945e-09
2.0578517509074614e-09
3.9524784594918776e-09
7.38808495004223e-09
1.3423151447263773e-08
2.3672473417768135e-08
4.046215173484793e-08
6.692135347171562e-08
1.0691633631824675e-07
1.6471418191039013e-07
2.442966385032329e-07
3.4837118176970136e-07
4.773746881399823e-07
6.291097066707316e-07
7.999789443726273e-07
9.888830837782294e-07
1.204490541963549e-06
1.4756684184791715e-06
1.8635623129068433e-06
2.4726597354012867e-06
3.4578879183307604e-06
5.025891734048083e-06
7.430938670125336e-06
1.0968326722961796e-05
1.5969056501758827e-05
2.2797481135377164e-05
3.1848619855169184e-05
4.353571479466076e-05
5.825487267743826e-05
7.63157791073384e-05
9.783711526161955e-05
0.0001226206923115946
0.0001500342919465496
0.0001789428804253928
0.000207725475780001
0.00023439860991664272
0.000256840460792019
0.0002730803219775959
0.0002815959325953452
0.00028155423531758063
0.00027294230255048567
0.0002565612330850309
0.00023388859425449272
0.0002068444564219632
0.00017751402792726148
0.0001478826006835862
0.00011962738933177693
9.399123549137164e-05
7.174186340011151e-05
5.320320629770559e-05
3.833547726889964e-05
2.6838454592518274e-05
1.8256078572304278e-05
1.2067185376603023e-05
7.754484757513862e-06
4.849993765397979e-06
2.9592961578184152e-06
1.769187574026398e-06
1.0438921504804885e-06
6.146314222685515e-07
3.6637793023609507e-07
2.2449975256315198e-07
1.4293628552822934e-07
9.467183504061852e-08
6.464422969497759e-08
4.483737912564947e-08
3.112110783634799e-08
2.1363340224498155e-08
1.4391420961984157e-08
9.472215236916187e-09
6.079822876782196e-09
3.8051158837272155e-09
2.324835810538251e-09
1.3897291383192736e-09
8.153856227928455e-10
4.715021788527949e-10
2.7008244055915235e-10
1.5416426378680463e-10
8.826669282364008e-11
5.10302895628387e-11
2.996801659708901e-11
1.795287797082034e-11
1.0990259326398905e-11
6.867227328793897e-12
4.3634847732299226e-12
2.8039651994292465e-12
1.8108181953407492e-12
1.168092305879473e-12
7.486367249210447e-13
4.748038357344046e-13
2.9731709188237893e-13
1.8382286202432937e-13
1.125674802268507e-13
6.877157264626563e-14
4.242668489351678e-14
2.685876387002155e-14
1.772984514129943e-14
1.2315519468682128e-14
8.975591909312992e-15
6.770900302540144e-15
5.193995441745826e-15
3.9876737104746754e-15
3.0290549270431956e-15
2.2602867928730757e-15
1.6505494760103266e-15
1.1776557136768362e-15
8.208754027856641e-16
5.594219103065059e-16
3.7321699092466654e-16
2.441113430729338e-16
1.567587665654644e-16
9.893781147602721e-17
6.14066905088808e-17
3.747498048547745e-17
2.246766049449026e-17
1.3205826689398024e-17
7.57150572945232e-18
4.1788575732686206e-18
2.1451788110685753e-18
9.406265078115324e-19
2.9195273549176425e-19
1.1963521646916093e-19
4.969171014130309e-19
1.6304759900187772e-18
3.8721944770929365e-18
7.776256140495399e-18
1.4213213491096746e-17
2.4542822757088217e-17
4.083307259658232e-17
6.609842743536457e-17
1.0451988320603564e-16
1.6160395787341365e-16
2.4423341347286947e-16
3.605515860950333e-16
5.195977703113236e-16
7.305764433741291e-16
1.001624775293653e-15
1.3380044904909015e-15
1.739895320265098e-15
2.200558591988599e-15
2.7067310251689428e-15
3.24479616868852e-15
3.818462641818943e-15
4.485856334173808e-15
5.424961029462734e-15
7.034173573807666e-15
1.0066303147323764e-14
1.5775723120522125e-14
2.602561036992417e-14
4.3253128072672704e-14
7.01284764627087e-14
1.0868545603631274e-13
1.5869088310224726e-13
2.1515968208762022e-13
2.6543076605851337e-13
2.875513272845668e-13
2.548010859257524e-13
1.5788234504109585e-13
7.028739510115492e-14
3.1083588083576933e-13
1.814260712124068e-12
6.932392790370915e-12
2.1103776929293008e-11
5.623590451164384e-11
1.3739188966193355e-10
3.1570701940853867e-10
6.927528215501899e-10
1.465336676544185e-09
3.0056111072441813e-09
5.999992788161536e-09
1.1682060447289702e-08
2.2208740759259013e-08
4.124342383774346e-08
7.481917933597185e-08
1.3255136712873388e-07
2.292392543100036e-07
3.868259130980459e-07
6.365611265795077e-07
1.0210276144173103e-06
1.5954577398967325e-06
2.4275228844498847e-06
3.5945887797973514e-06
5.177392815961104e-06
7.249321140670933e-06
9.861034993381783e-06
1.3021154519977328e-05
1.667500283765504e-05
2.0684880229710942e-05
2.481670089631384e-05
2.8738711465421484e-05
3.203799589581202e-05
3.425913541682883e-05
3.4966411299412006e-05
3.382622642262027e-05
3.0700324551500774e-05
2.5733884949123925e-05
1.9417374112063838e-05
1.25993980835817e-05
6.431913735658384e-06
2.240192670028153e-06
1.3269856045853949e-06
4.739868289321213e-06
1.3047024727076325e-05
2.6173461071354045e-05
4.334248833411383e-05
6.314610637359496e-05
8.373760778341378e-05
0.00010310913499352312
0.00011939571937044184
0.00013114225906119795
0.0001374821379667584
0.00013820101635985806
0.00013368818037623326
0.00012480185258506783
0.00011268809162850696
9.859392298901841e-05
8.370679242714817e-05
6.903912712502115e-05
5.5363477927944214e-05
4.319356314643542e-05
3.280068559164714e-05
2.4253031669306354e-05
1.7466114645285437e-05
1.2254863373706182e-05
8.38064594987211e-06
5.589265874193138e-06
3.6383457179627987e-06
2.3143489187930954e-06
1.4407187270898783e-06
8.792546120730909e-07
5.269912966689993e-07
3.106297870954385e-07
1.8014196838544244e-07
1.0266431295524129e-07
5.731429259289423e-08
3.1170515204877764e-08
1.6384480311115715e-08
8.238668186378531e-09
3.911723735134003e-09
1.7248474202516575e-09
6.911078181655507e-10
2.448225604716942e-10
7.537217803203854e-11
2.2756549054081226e-11
1.1713058342750701e-11
1.1248209422558673e-11
1.1171988046433305e-11
9.63261707419673e-12
7.264889099186282e-12
4.91564096095947e-12
3.0441782807775115e-12
1.7507408361736492e-12
9.457241847466523e-13
4.847371094679651e-13
2.3829739275893025e-13
1.1383480460358194e-13
5.3725047054333436e-14
2.555007502755547e-14
1.2482972070737806e-14
6.344333854115655e-15
3.356112368408251e-15
1.8287613969878178e-15
1.01105028496073e-15
5.593376301131628e-16
3.0666361398681627e-16
1.6573280262737046e-16
8.805277987159698e-17
4.58838299141461e-17
2.3452276216363154e-17
3.31424438748834e-17
1.739136113843468e-17
8.939563738752528e-18
4.296329779884857e-18
1.9579784718223357e-18
1.0974501151034744e-18
7.995169672940481e-19
3.598675124936789e-19
2.58137337247425e-22
7.994222968893016e-19
4.051121480708181e-18
1.2218398903653441e-17
3.324804202431173e-17
8.753869531364369e-17
2.1809619894687476e-16
5.171055906156423e-16
1.2151390663294947e-15
2.9570426207164115e-15
7.57913990369294e-15
2.0145809316947246e-14
5.397077477725516e-14
1.4244943748128193e-13
3.6625176425693807e-13
9.151749895605355e-13
2.2277205461404007e-12
5.301364100200801e-12
1.2365755721360497e-11
2.8299017611904118e-11
6.350683273024654e-11
1.3956726876279615e-10
2.998863437850263e-10
6.290109911666549e-10
1.2860957869475027e-09
2.5600016893852494e-09
4.954702620911414e-09
9.312244860185012e-09
1.6973568399632793e-08
2.9961783706098855e-08
5.1146413310421034e-08
8.431475560812297e-08
1.3405286046501948e-07
2.053525490051475e-07
3.0295046489556326e-07
4.305981625566065e-07
5.907426394986364e-07
7.85370142909242e-07
1.0188555738453395e-06
1.3033659351582955e-06
1.6665991512320498e-06
2.160571180302292e-06
2.869287824058482e-06
3.913115753787127e-06
5.4489483224976134e-06
7.667620808661383e-06
1.0792344932756514e-05
1.508248820963611e-05
2.0844379124939283e-05
2.8444889989219394e-05
3.831626982245072e-05
5.093569519004157e-05
6.67641649939131e-05
8.613882492931595e-05
0.00010912933477190908
0.00013538757569431822
0.00016403365710808835
0.00019362309687291185
0.00022222689346945972
0.00024762995976255206
0.0002676212137795411
0.00028032063894874333
0.0002844742888945963
0.00027965275293485755
0.0002663109916659339
0.00024570076870812375
0.00021966091752974347
0.0001903356038807525
0.00015988053881614187
0.00013021108551906617
0.00010282852513245502
7.87381956400875e-05
5.845255413871696e-05
4.2058073971301655e-05
2.931892565191643e-05
1.9791626618970427e-05
1.2930767278348936e-05
8.173698267777263e-06
4.999426922873724e-06
2.9625906529252435e-06
1.7068193457098309e-06
9.63262015819789e-07
5.40041998525292e-07
3.0749654512725556e-07
1.8275250969982808e-07
1.1585721118357848e-07
7.85482216984922e-08
5.591166997552254e-08
4.0658394195793346e-08
2.949553393039042e-08
2.1014711683039144e-08
1.4579891329248229e-08
9.81343496385515e-09
6.4022756533028604e-09
4.051688833361255e-09
2.49194378122774e-09
1.4935479274580258e-09
8.754179340503858e-10
5.040461404294541e-10
2.8668498582704905e-10
1.621693687948959e-10
9.1960241632675e-11
5.272380853529062e-11
3.081066064196111e-11
1.8464333188674473e-11
1.1377780524347317e-11
7.1985286725397295e-12
4.6528832516242e-12
3.050794192334682e-12
2.013874061108641e-12
1.3293216512444603e-12
8.727661405075338e-13
5.679588260016839e-13
3.657994115289927e-13
2.333475406581085e-13
1.479185038779776e-13
9.374066667730952e-14
5.990620852017476e-14
3.899671035025793e-14
2.6092392257860083e-14
1.8030613776717474e-14
1.2848662792778226e-14