# vtk DataFile Version 4.1 
COMMENT
ASCII
DATASET STRUCTURED_POINTS 
DIMENSIONS 300 300 1 
ORIGIN 0 0 0
SPACING 0.020943951023931952 0.020943951023931952 0 
POINT_DATA 90000
SCALARS U double 1
LOOKUP_TABLE default
7.427060679736091e-19
1.6790402716622996e-18
2.524326712071768e-18
3.979030107465396e-18
8.047575015077044e-18
1.7593204708070564e-17
3.684189893455322e-17
7.385764780056165e-17
1.4550493415645893e-16
2.871072559606854e-16
5.758441541179197e-16
1.1943937924500763e-15
2.603370601831152e-15
5.990181714511656e-15
1.4380889887974565e-14
3.524193540163648e-14
8.619312848174226e-14
2.0671958370541172e-13
4.804776856597257e-13
1.0744930871420636e-12
2.3019736651159985e-12
4.712023720215322e-12
9.197996603586345e-12
1.7090791381907586e-11
3.0158272536813884e-11
5.0366011681561444e-11
7.918299395669149e-11
1.1619554214683116e-10
1.5696654779962883e-10
1.9074107054481446e-10
2.0028160060878422e-10
1.6964902914614995e-10
1.1230657212500459e-10
1.4303256503215421e-10
6.345703986497715e-10
2.5255397977477947e-09
7.881107256665032e-09
2.0851490219996496e-08
4.9220304051190705e-08
1.0677204494057482e-07
2.1671204363985842e-07
4.163089265582374e-07
7.627602861374582e-07
1.3399773957307007e-06
2.265545295377372e-06
3.696595634025438e-06
5.83285775863243e-06
8.914922130701309e-06
1.321597920408722e-05
1.9026149823724804e-05
2.6629995017014433e-05
3.627961261044815e-05
4.8167339697181315e-05
6.240276446284047e-05
7.899789944245303e-05
9.786183863280688e-05
0.00011880261948752041
0.00014153070759070265
0.0001656572624787123
0.00019068249317578023
0.00021597509684099977
0.00024075135763099932
0.00026406881399375706
0.00028485096254043203
0.00030195406466926355
0.000314275337950768
0.00032088731397929277
0.0003211714506655286
0.00031492020688620305
0.0003023828273645039
0.00028424412606306576
0.00026154245141812155
0.0002355467408428531
0.00020761888356110556
0.00017908566898245073
0.00015113681483138773
0.00012475598858564083
0.00010068396279584348
7.940883155278478e-05
6.11772584414764e-05
4.602149094807933e-05
3.379776826170493e-05
2.4231946174719194e-05
1.696777585849722e-05
1.161295720158727e-05
7.77846810821062e-06
5.107951497949591e-06
3.2958408922420947e-06
2.0948683448445588e-06
1.3150929030032665e-06
8.173201172648827e-07
5.037560928370097e-07
3.081748358335162e-07
1.8707861411352429e-07
1.1256123922467131e-07
6.70021183292885e-08
3.9372370653049514e-08
2.279218660827626e-08
1.2973998919858162e-08
7.250838524081647e-09
3.973039481563789e-09
2.130942575259351e-09
1.1160380454718152e-09
5.68460838686111e-10
2.797486641022881e-10
1.3161708513366882e-10
5.824266077379131e-11
2.3646815537065738e-11
8.507789632112953e-12
2.659525287842451e-12
9.050393994793938e-13
7.066729720603298e-13
9.192252828399544e-13
1.0986430185262854e-12
1.129469865386578e-12
1.0300366495972026e-12
8.566834297455217e-13
6.620782428718912e-13
4.816275485784719e-13
3.330607307779615e-13
2.2096953877512227e-13
1.4213938445581367e-13
8.988873383820363e-14
5.693440070421217e-14
3.692647303475282e-14
2.502318095687681e-14
1.7889416605149243e-14
1.3422151612171431e-14
1.040202863040736e-14
8.178922854719033e-15
6.433800082494872e-15
5.0201845416753215e-15
3.87028139843659e-15
2.945966803283105e-15
2.2170739466346926e-15
1.6541809682863143e-15
1.2278781107016597e-15
9.10157249319502e-16
6.759333342350441e-16
5.040136406853723e-16
3.7743461979941235e-16
2.833001833286444e-16
2.1229216949446258e-16
1.5800152402170046e-16
1.1619868595598768e-16
8.413743367819845e-17
5.996539671479733e-17
4.229056180650532e-17
2.992349163605675e-17
2.1782034942036202e-17
1.6915931698060094e-17
1.4591360786918574e-17
1.437629185998742e-17
1.6187072317328726e-17
2.0288716765204548e-17
2.7273935427657832e-17
3.8064782805892474e-17
5.3973702104618166e-17
7.682181972726093e-17
1.0904582141954089e-16
1.5364779316097686e-16
2.137868784388178e-16
2.918237014912512e-16
3.8776554009462436e-16
4.973843156976115e-16
6.10850282336367e-16
7.135949074337158e-16
7.923355405027373e-16
8.508122433206389e-16
9.418491489573454e-16
1.224848795471612e-15
2.060549174091068e-15
4.157131633680024e-15
8.781966739338243e-15
1.804841228280646e-14
3.527232560542407e-14
6.536185606564787e-14
1.151497588485149e-13
1.934957244142822e-13
3.1088144883660577e-13
4.781161967959476e-13
7.037219545353924e-13
9.896883806614071e-13
1.3257842968944072e-12
1.6838363379516613e-12
2.0159176278259357e-12
2.265166416552406e-12
2.406461200507512e-12
2.548749358774291e-12
3.1551387138079974e-12
5.476784601885126e-12
1.236167247677861e-11
2.9705276525831264e-11
6.898236297265958e-11
1.5157839633661075e-10
3.160852253700714e-10
6.304191978536187e-10
1.2116487027485078e-09
2.2578391404437427e-09
4.097975215078932e-09
7.267768039467256e-09
1.2620055205389547e-08
2.14769304736467e-08
3.582410271205543e-08
5.8532909359448205e-08
9.356878014204362e-08
1.4610633561022236e-07
2.2242716869663456e-07
3.294455118446189e-07
4.737252877484806e-07
6.599719413931713e-07
8.892614112257015e-07
1.1577406594984558e-06
1.4571643367957055e-06
1.7792641435144951e-06
2.126270847009925e-06
2.529483810384197e-06
3.0761589792391473e-06
3.941926417932441e-06
5.421712028432812e-06
7.947710273105695e-06
1.2080059743285978e-05
1.8456623871702208e-05
2.769442592781502e-05
4.024723106028981e-05
5.6239704829081474e-05
7.531427022524092e-05
9.653635036496149e-05
0.00011840144087095919
0.00013897036666714996
0.00015612885100533755
0.00016793130186608493
0.0001729576211392032
0.00017059745037101441
0.0001611861541922722
0.00014595090156699792
0.0001267745749059399
0.00010583470162596207
8.520787522623944e-05
6.653603283554979e-05
5.082786537216424e-05
3.842521067790993e-05
2.9115999323235732e-05
2.233835163143209e-05
1.7405471531501772e-05
1.3689779634308872e-05
1.0730429404064207e-05
8.259305199914219e-06
6.165495998399658e-06
4.430263032193836e-06
3.0629758776259148e-06
2.0576622083167e-06
1.376126984096047e-06
9.526340652815668e-07
7.0979379982444e-07
5.754801321455822e-07
4.942398349520459e-07
4.311558515580509e-07
3.6953969088810796e-07
3.0536530006822944e-07
2.4124411153825793e-07
1.8172247564971164e-07
1.3051721349432492e-07
8.946659858248346e-08
5.859813950694832e-08
3.670460780675434e-08
2.1996598844266646e-08
1.2610446290147412e-08
6.910681102814582e-09
3.6150432252778063e-09
1.8012347334659165e-09
8.522439481432017e-10
3.81303692481434e-10
1.6040529383724498e-10
6.296895052790715e-11
2.285591212976478e-11
7.6145397322007e-12
2.358162055775598e-12
7.502379429086808e-13
3.2072945657953734e-13
2.0901832386574489e-13
1.6043525576043177e-13
1.1933778378703655e-13
8.209988359210746e-14
5.2325996317413335e-14
3.121079688538937e-14
1.7589667522560526e-14
9.43947589178475e-15
4.854646979708525e-15
2.4063319001826488e-15
1.1557193764366523e-15
5.403851753362174e-16
2.468793883954582e-16
1.1066204513409729e-16
4.927159044575939e-17
2.2374441008534338e-17
1.0421613826032504e-17
4.496099851706919e-18
1.3810150942787438e-18
3.153711262456533e-19
1.784759196931494e-18
1.4643716858482203e-18
9.135041644977649e-19
8.836459319513264e-19
2.442899809383839e-18
6.264579832869571e-18
1.3080202433771716e-17
2.5095520895108214e-17
4.7522561926630694e-17
9.04743379191365e-17
1.7484001817619766e-16
3.529774064441513e-16
7.728674615322706e-16
1.8608696994889422e-15
4.809539246787563e-15
1.279293056983244e-14
3.377747109183629e-14
8.654565702207787e-14
2.126379108699215e-13
4.981658556196176e-13
1.110206145339241e-12
2.35129107318673e-12
4.729762484019463e-12
9.029437470764547e-12
1.6333922563448394e-11
2.7914400691083204e-11
4.482751646918334e-11
6.702016169182012e-11
9.179239843813055e-11
1.1185042000520466e-10
1.1433170433315049e-10
8.486531117344799e-11
2.6084141572200545e-11
9.544239321589619e-12
2.954729829913903e-10
1.577814862705484e-09
5.44358787591868e-09
1.5174627478581032e-08
3.706164229270227e-08
8.24341782433901e-08
1.706160714629878e-07
3.329655675329824e-07
6.180179815616631e-07
1.0974860242660264e-06
1.8724798115034486e-06
3.07882206627109e-06
4.8898610112000214e-06
7.514910181635653e-06
1.1191610269127448e-05
1.6171325831234787e-05
2.2698214340704197e-05
3.098459356953358e-05
4.118707717579391e-05
5.338877367221011e-05
6.759182650887117e-05
8.372140575803705e-05
0.00010163757904809734
0.0001211469726202802
0.00014200408161768818
0.00016389445487763514
0.00018639920155487968
0.00020895048455745027
0.0002307969173232186
0.00025100140435802964
0.0002684887851069976
0.00028214691328742306
0.0002909667926349501
0.00029419195309389804
0.0002914408942339472
0.00028277220716844606
0.00026867793620680966
0.00025001067093210664
0.0002278662465723374
0.00020345133110370573
0.00017796241327348703
0.00015249281879133064
0.00012797261846613143
0.00010513738713505064
8.451799346234524e-05
6.644437167485494e-05
5.1059179696886345e-05
3.8339856066651256e-05
2.8128420024398328e-05
2.0167445092578573e-05
1.4139004505505996e-05
9.702244117312005e-06
6.525304383140659e-06
4.308585504741311e-06
2.7982834277074242e-06
1.79100751699723e-06
1.1315842475340825e-06
7.066496438268147e-07
4.3643927773047733e-07
2.665737137790361e-07
1.609062629054566e-07
9.58654862332554e-08
5.628972095997522e-08
3.2521554667524803e-08
1.845818467606777e-08
1.0274942072930373e-08
5.599719719640599e-09
2.980954252537781e-09
1.5449125291049003e-09
7.755009395222587e-10
3.739926298637339e-10
1.7103013157742434e-10
7.257080813239088e-11
2.7478874452246703e-11
8.571801236693543e-12
1.7875849125904339e-12
1.141717475924132e-13
2.4245749181552714e-13
7.476813698863822e-13
1.1177518740051144e-12
1.2468985092196055e-12
1.182611691453883e-12
1.0081307577547135e-12
7.951128493931247e-13
5.904786550251403e-13
4.1807068782900366e-13
2.8520603910484246e-13
1.894905288054875e-13
1.2411132258607573e-13
8.125866492349462e-14
5.395663578802545e-14
3.6776954895729604e-14
2.588931034160513e-14
1.8794913077486876e-14
1.3967714051599538e-14
1.0524284266886875e-14
7.970587018623087e-15
6.030842661375059e-15
4.543571896154867e-15
3.4044939639662876e-15
2.538194592485734e-15
1.8854550552846973e-15
1.3980707859925542e-15
1.0367264424832427e-15
7.698606067888478e-16
5.727294563297922e-16
4.264558915207763e-16
3.170561530297773e-16
2.344824188861138e-16
1.7171816406761544e-16
1.2395711098283603e-16
8.789532352577207e-17
6.116477118236355e-17
4.192903592549281e-17
2.8644876368794883e-17
1.996963768190619e-17
1.4771227345549042e-17
1.218369229519566e-17
1.1654388763148825e-17
1.2949679982637971e-17
1.6118950793633768e-17
2.144906476116158e-17
2.945806946195094e-17
4.096522418668967e-17
5.722910031988159e-17
8.007312975414577e-17
1.1183910310963003e-16
1.5495801423605837e-16
2.1094873460506853e-16
2.787959383641715e-16
3.52961605047376e-16
4.21779203395422e-16
4.676850885321308e-16
4.71678506243491e-16
4.2561493160768204e-16
3.575115513454772e-16
3.7707605933956005e-16
7.511571476500988e-16
2.0214050917206685e-15
5.178028811832556e-15
1.1901826207358931e-14
2.4877738117664265e-14
4.8161619837463426e-14
8.754192175760208e-14
1.5077613792759864e-13
2.475026772350696e-13
3.8855343427784173e-13
5.843720437976247e-13
8.423777107538116e-13
1.1635792225065557e-12
1.5398218240842531e-12
1.955180264395969e-12
2.398855068553397e-12
2.903468460482833e-12
3.6333686159637274e-12
5.064736100201382e-12
8.326713079382835e-12
1.5816919821413705e-11
3.227698010733903e-11
6.663393930117093e-11
1.3511515207482062e-10
2.664800357653456e-10
5.107578228441263e-10
9.537311052810754e-10
1.74065252021348e-09
3.1143582355498965e-09
5.474906005459879e-09
9.46961914806788e-09
1.6122859143627462e-08
2.7012045185193995e-08
4.448761809950184e-08
7.191679448207225e-08
1.1390252635923275e-07
1.763932537110269e-07
2.6656842186725186e-07
3.923860997639322e-07
5.61754696804078e-07
7.814913849515916e-07
1.0565929374368433e-06
1.3908569771448219e-06
1.7904415593937072e-06
2.272292213451969e-06
2.8791241109255725e-06
3.701408798421807e-06
4.904310582278486e-06
6.753877508142497e-06
9.63277964346247e-06
1.403296764169024e-05
2.0512715639720548e-05
2.9610358481232864e-05
4.171730015607295e-05
5.692727973000958e-05
7.489383605607642e-05
9.47380341687551e-05
0.00011504822451264167
0.00013399940704345804
0.00014959242764831722
0.00015997876072703127
0.0001638053049140895
0.00016049688317111715
0.00015040029542887136
0.000134744112675387
0.00011541559322998688
9.460592430824059e-05
7.441113263909158e-05
5.6486175082627535e-05
4.1830528896561554e-05
3.074204284452995e-05
2.2926548147694102e-05
1.7710333264579336e-05
1.428321332428536e-05
1.190513153605167e-05
1.003356335046973e-05
8.361184201570187e-06
6.781283163410307e-06
5.314056320151361e-06
4.028094602684667e-06
2.981539934961715e-06
2.192925074181828e-06
1.6388678496810965e-06
1.2683584642731572e-06
1.0220342209034254e-06
8.478597289911787e-07
7.093447584471044e-07
5.865398392746807e-07
4.7236058535891966e-07
3.6724580921024194e-07
2.743926022676413e-07
1.9663971401715465e-07
1.350827944226373e-07
8.895419336639832e-08
5.616177139108324e-08
3.399722338779224e-08
1.9727968755434526e-08
1.0967809637810742e-08
5.836530767293062e-09
2.9690146349019054e-09
1.441263670816816e-09
6.662664655041486e-10
2.926685335159988e-10
1.2197090819442756e-10
4.828860153238351e-11
1.8341745839139868e-11
6.898918416150857e-12
2.759872132802043e-12
1.2938437760554068e-12
7.348227806682165e-13
4.701762995693071e-13
3.095246818843607e-13
1.9928938688561435e-13
1.2319632899488487e-13
7.284186057427925e-14
4.125693920846914e-14
2.2455747083885804e-14
1.1787997642760393e-14
5.990230677717041e-15
2.957634104186381e-15
1.423994394642884e-15
6.710015013978959e-16
3.109002601171309e-16
1.4263136662830896e-16
6.516552322907962e-17
2.9357461216243877e-17
1.2562585259969832e-17
5.0407818567882435e-18
2.3658273539872936e-18
4.082259112506782e-18
1.8113056611959377e-18
3.54251303912963e-19
5.01219704420805e-20
9.771028287818012e-19
2.6493630677304594e-18
4.790102514688729e-18
8.200533914298144e-18
1.4794679580905162e-17
2.705480897470076e-17
4.883814237191068e-17
9.18178524454367e-17
1.985623447450923e-16
5.149195683401047e-16
1.5012689135748662e-15
4.4976840443927296e-15
1.3104085676210783e-14
3.6272463849769744e-14
9.468809782712222e-14
2.3288959453202874e-13
5.403412537765487e-13
1.1845845840475285e-12
2.457254436658131e-12
4.826796312455774e-12
8.976561161754504e-12
1.5778980628565922e-11
2.611321039542963e-11
4.038605773528543e-11
5.7618617966208387e-11
7.417031422648618e-11
8.29376218303056e-11
7.583822182706129e-11
5.66125367042897e-11
7.887481773526226e-11
3.3759884152711495e-10
1.362378241312142e-09
4.388634061673448e-09
1.2017447451439846e-08
2.931166428401644e-08
6.550614224681255e-08
1.365174453349827e-07
2.6839901859937505e-07
5.017714523568724e-07
8.970330908725482e-07
1.5398068814913034e-06
2.545625291936651e-06
4.062383920820053e-06
6.268783387226262e-06
9.367084361351372e-06
1.3569283590123261e-05
1.907739927204113e-05
2.6060727087146426e-05
3.4635041184415974e-05
4.484973597017575e-05
5.668777167167129e-05
7.007948664095258e-05
8.492549560279676e-05
0.00010111799347209134
0.00011854673156400755
0.0001370783674666219
0.00015650666836967164
0.00017648413242051005
0.00019645814901856837
0.00021564087254902009
0.00023303716395177773
0.00024753906268118274
0.0002580731804115693
0.0002637675695732882
0.0002640953415257759
0.0002589578826559253
0.0002486889830450799
0.00023398513492890329
0.00021578726851680861
0.00019514820404368434
0.00017311634186063538
0.00015065329192822074
0.00012858801603744165
0.00010759892753164258
8.82114325723717e-05
7.080092966580282e-05
5.559702808615709e-05
4.268996595637537e-05
3.20425359194282e-05
2.350995298241277e-05
1.6867322566171974e-05
1.1841523147073156e-05
8.142787598437622e-06
5.491492357213936e-06
3.6372340069233595e-06
2.369356745277499e-06
1.5199033170536715e-06
9.61040537673077e-07
5.992891987351974e-07
3.685699294602642e-07
2.234655380967584e-07
1.3346278735318738e-07
7.843347118718159e-08
4.529922711589318e-08
2.5676128730862897e-08
1.4260944144269634e-08
7.747187677883603e-09
4.10639546553201e-09
2.116407009076352e-09
1.0551908504527722e-09
5.049578912814433e-10
2.2911370949039763e-10
9.662114357807068e-11
3.658903351867439e-11
1.1652571037711611e-11
2.7240831067672805e-12
4.435672205429263e-13
4.827552912266369e-13
1.019827507740626e-12
1.4148076439478442e-12
1.5375444715465142e-12
1.4431897179098027e-12
1.2275637623988259e-12
9.717475594133497e-13
7.279678954974095e-13
5.223225974687165e-13
3.6256603582725387e-13
2.458216171649112e-13
1.6442082071905666e-13
1.096208474539194e-13
7.35782003761757e-14
5.01194182102645e-14
3.480346075958431e-14
2.464613959109435e-14
1.7744117972907527e-14
1.2926163284310047e-14
9.482783539724743e-15
6.980304551454504e-15
5.144421591670776e-15
3.792602118403833e-15
2.7969978540911773e-15
2.0645993374996933e-15
1.5263514805144164e-15
1.1306736577432143e-15
8.391506227008293e-16
6.233987012829164e-16
4.626761158446604e-16
3.420259573729105e-16
2.5081847744860663e-16
1.8159539039825056e-16
1.291483211794663e-16
8.979159083880632e-17
6.081121007452818e-17
4.008183776220121e-17
2.583978376873007e-17
1.6586132117354875e-17
1.1077421223810644e-17
8.351674350079386e-18
7.742589199012068e-18
8.856241228365725e-18
1.1516853236433609e-17
1.5718451095796913e-17
2.1632232606642046e-17
2.9702853655151955e-17
4.0816943351985406e-17
5.645328845992127e-17
7.864982635196324e-17
1.0958320576182624e-16
1.505928170200742e-16
2.0062897464813585e-16
2.543860457994248e-16
3.0079824374334393e-16
3.2311869895426404e-16
3.0247169227906807e-16
2.276087475629076e-16
1.1473071165867424e-16
4.2843779939451875e-17
2.1235426956921742e-16
1.0373889694431187e-15
3.284977562700023e-15
8.2750551104043e-15
1.8151184473671245e-14
3.6218620472944824e-14
6.731916434005457e-14
1.1816865696738074e-13
1.9752727051891795e-13
3.160238431065569e-13
4.854577914701174e-13
7.175400907980694e-13
1.0224502438902916e-12
1.408497418265538e-12
1.8858962495506068e-12
2.4806372855752948e-12
3.2692451554474388e-12
4.452720985784247e-12
6.499475821767672e-12
1.0404867450946937e-11
1.814335196260179e-11
3.343648088995666e-11
6.304134947642399e-11
1.1890672365485134e-10
2.2179260449075788e-10
4.0737117712450905e-10
7.365154041438768e-10
1.3125437553621254e-09
2.3097161055701753e-09
4.019265556276432e-09
6.9214759018061215e-09
1.179411627707353e-08
1.9867600503622432e-08
3.3033432931293536e-08
5.4102188975907625e-08
8.708837841235333e-08
1.3747294013732124e-07
2.1236748922554665e-07
3.2049661897591023e-07
4.719580091828745e-07
6.77857033029766e-07
9.501796227326889e-07
1.3026653975773529e-06
1.7538969826512672e-06
2.334142231092503e-06
3.097366656468969e-06
4.138908867288956e-06
5.617306886934573e-06
7.775713065313945e-06
1.0954809813248462e-05
1.558634629685851e-05
2.2156046596427166e-05
3.1128356212451785e-05
4.2834137216417296e-05
5.733517276615223e-05
7.42932448691561e-05
9.288182642267595e-05
0.0001117797727401997
0.00012927504087077214
0.00014348232227687083
0.00015264637909876395
0.00015547203090216028
0.000151403126032441
0.00014077520054124344
0.00012479247767653297
0.00010532376919213225
8.456089385634334e-05
6.46215759922666e-05
4.719336864535232e-05
3.330084106563266e-05
2.324008109380716e-05
1.6675774289172236e-05
1.2853143292792336e-05
1.0853134972755069e-05
9.819864938920234e-06
9.11081263595531e-06
8.352289979871477e-06
7.413041155735893e-06
6.328099465909942e-06
5.209612573387726e-06
4.173509178813642e-06
3.2965843757442778e-06
2.60440235459907e-06
2.0809736303182315e-06
1.687998739665946e-06
1.3834220868749038e-06
1.1335559525925749e-06
9.17591028982745e-07
7.263336291963337e-07
5.581025608918146e-07
4.1433812879363766e-07
2.96409959767392e-07
2.0404128881416103e-07
1.3506401763782879e-07
8.594518702274014e-08
5.256282915065572e-08
3.088990197340474e-08
1.7438167832445313e-08
9.452617575120122e-09
4.9177020559477445e-09
2.4543941661286674e-09
1.1750095601849557e-09
5.399523995852587e-10
2.3879226280274475e-10
1.02313985257275e-10
4.30935595649619e-11
1.8336606728371908e-11
8.212864392037263e-12
4.033093029134316e-12
2.1983766994334833e-12
1.295560324171618e-12
7.913417873374671e-13
4.842250393401935e-13
2.9103076531615423e-13
1.7022638023654717e-13
9.65721722254857e-14
5.311758325395932e-14
2.8355680824703668e-14
1.4717503363091903e-14
7.443457649547317e-15
3.677307939034165e-15
1.779483913006297e-15
8.461460992257674e-16
3.9662198927339423e-16
1.834700835521837e-16
8.342800556979097e-17
3.714768440720264e-17
1.6556108039642495e-17
7.905205579538783e-18
9.99067101507392e-18
3.913713758233507e-18
1.191341755509001e-18
6.153775032676499e-19
1.0589600575058544e-18
1.505889274852124e-18
1.7121071606211878e-18
2.3677775619496394e-18
4.388133040127722e-18
7.982452027769945e-18
1.2691673003249957e-17
1.9697803387291148e-17
3.983340353653023e-17
1.2129323573445007e-16
4.4077272144731114e-16
1.5676457808290898e-15
5.143900736960713e-15
1.5472945302391788e-14
4.292900992564075e-14
1.106858026280794e-13
2.6689437168564106e-13
6.047886096659506e-13
1.2926357105499619e-12
2.6128811756192315e-12
5.00335615069498e-12
9.079912866938159e-12
1.5595914211930982e-11
2.5262447689046e-11
3.834422590174487e-11
5.406549736502413e-11
7.037156465834552e-11
8.602566986987464e-11
1.102764563780186e-10
1.9169826884454456e-10
4.8883278740914e-10
1.4223838714736095e-09
3.972634279920431e-09
1.021553872058152e-08
2.4222980399240898e-08
5.34794021262289e-08
1.1097558216673851e-07
2.1811125415230974e-07
4.0844508963708594e-07
7.321425867830597e-07
1.2606650179551983e-06
2.0908197042849472e-06
3.3468209553492814e-06
5.178658404369953e-06
7.755106390615958e-06
1.1250446244387793e-05
1.582560524680685e-05
2.160678826073558e-05
2.866710702633276e-05
3.7018008513539385e-05
4.661614159758917e-05
5.738691466564984e-05
6.92589463451462e-05
8.219616933559329e-05
9.621005741021813e-05
0.00011133673716756064
0.0001275740206989502
0.00014478951850653638
0.0001626272261574455
0.00018044887844974637
0.00019734213771270532
0.00021220948927747865
0.00022392505573454557
0.00023152156761818178
0.00023435693201429708
0.00023221508425493555
0.00022531731123028224
0.00021424922519403295
0.0001998333649368192
0.0001829888350700876
0.000164614740950814
0.0001455177301313874
0.0001263842252768191
0.00010778326568566112
9.018080074794569e-05
7.395031210861573e-05
5.9373596209523655e-05
4.663424217761925e-05
3.581113616715627e-05
2.6879251595714743e-05
1.9721433891011465e-05
1.4150313034636346e-05
9.936036041440792e-06
6.83426054406451e-06
4.6096669774819914e-06
3.052268518098563e-06
1.986010095740638e-06
1.2708164004758095e-06
8.000817486031296e-07
4.956731645505352e-07
3.021188226847107e-07
1.8107677350027838e-07
1.0664139245697475e-07
6.165364336413058e-08
3.4952460410057605e-08
1.940475248300944e-08
1.0532657838502052e-08
5.577445184740084e-09
2.872906383111642e-09
1.4334806105649829e-09
6.887585563743145e-10
3.15977103824201e-10
1.3675724246869659e-10
5.4965339507248803e-11
2.0220726534157436e-11
6.973603797543879e-12
2.7904475581897217e-12
1.9502060423120604e-12
2.0326212196464654e-12
2.1541961711689777e-12
2.0898858977544976e-12
1.8578496487005728e-12
1.5379313831515086e-12
1.2026038831622753e-12
8.983156719719062e-13
6.468311540387144e-13
4.525577559968656e-13
3.100255601100265e-13
2.0955191424888728e-13
1.4082086368808538e-13
9.475343843390028e-14
6.420429748252164e-14
4.397065315629581e-14
3.0476458296870807e-14
2.1364517349596396e-14
1.5121456935692598e-14
1.0785203408789917e-14
7.740192624516617e-15
5.584862968987959e-15
4.050533053375055e-15
2.953159624289377e-15
2.1645717813137706e-15
1.5947225574424729e-15
1.1801553942551852e-15
8.761482994108297e-16
6.512142029810884e-16
4.832171432623441e-16
3.5662867421716124e-16
2.605843280031759e-16
1.8749166366456194e-16
1.3201718928718485e-16
9.034247511033376e-17
5.962663335470399e-17
3.764024423216247e-17
2.2545197221093752e-17
1.279036805105369e-17
7.082918727346878e-18
4.389277232453057e-18
3.9264647324894385e-18
5.125509526132932e-18
7.578556802783369e-18
1.1007650897397425e-17
1.530132458036847e-17
2.064402631907443e-17
2.7711596327799133e-17
3.783542538231233e-17
5.297407607937698e-17
7.530852604880728e-17
1.0633049220941654e-16
1.454460567729557e-16
1.8837179702488945e-16
2.259379702916038e-16
2.4430293678503e-16
2.280141617165372e-16
1.6787392708270881e-16
7.632912489890854e-17
1.434712216103073e-17
1.3572694101110646e-16
7.576263970920149e-16
2.469399012481245e-15
6.294443797312452e-15
1.3919383247382903e-14
2.7998154241924914e-14
5.252191921402981e-14
9.321728331677501e-14
1.5789906402345477e-13
2.566757089013799e-13
4.0192198286519475e-13
6.080625483342034e-13
8.915612466525158e-13
1.2722440277124784e-12
1.7784112936194212e-12
2.460381549903014e-12
3.4204704324380647e-12
4.872360140240952e-12
7.250013425224897e-12
1.139703725940163e-11
1.888450957502414e-11
3.253465993166517e-11
5.728112872589468e-11
1.0159525932554877e-10
1.798884696433852e-10
3.16620676160922e-10
5.53387381868711e-10
9.611323706480075e-10
1.660959757007245e-09
2.8588893034195593e-09
4.902283710271386e-09
8.368272291738158e-09
1.4196510646033426e-08
2.387857966441733e-08
3.9712121984036755e-08
6.511729216376454e-08
1.049957226538866e-07
1.6609198275462175e-07
2.5730674837973623e-07
3.899331102976399e-07
5.778758452942947e-07
8.381006018626866e-07
1.1918548497977915e-06
1.6675567734151947e-06
2.306522140809633e-06
3.1726486968671465e-06
4.366493809350643e-06
6.042603185239015e-06
8.426448389449616e-06
1.1824318299284213e-05
1.6616955357803756e-05
2.322707680118699e-05
3.205370175321879e-05
4.337334837274663e-05
5.721922769226447e-05
7.326219660468738e-05
9.072731282420607e-05
0.0001083824622399328
0.0001246268416361841
0.0001376862875674702
0.00014589321262871568
0.00014799922576195343
0.00014344859980601577
0.00013253949773987158
0.00011642100292712378
9.691366351736945e-05
7.618837248628327e-05
5.637804410662294e-05
3.921532076824676e-05
2.578078109323522e-05
1.6412665865256113e-05
1.0782416496650085e-05
8.095976218548784e-06
7.352753734859524e-06
7.589569394789684e-06
8.054189954428749e-06
8.283378448312683e-06
8.091853824127619e-06
7.501005453754958e-06
6.644557252551431e-06
5.683439698136037e-06
4.749023370172367e-06
3.919136307058429e-06
3.2201678322519477e-06
2.6434668846471975e-06
2.164739346305151e-06
1.7590230411328908e-06
1.4084851117733072e-06
1.1038619027927993e-06
8.420920430512636e-07
6.227866112721073e-07
4.453344103723881e-07
3.073776101493899e-07
2.0458239261272954e-07
1.3122993952893542e-07
8.110254854885978e-08
4.8284117021643305e-08
2.7689661805238482e-08
1.529680909279939e-08
8.142673994706571e-09
4.179189515194441e-09
2.070868311665107e-09
9.932663771785364e-10
4.6332835141593823e-10
2.1194500207425169e-10
9.637226539561187e-11
4.442803075872492e-11
2.126337598329376e-11
1.0777202259725113e-11
5.819024477495459e-12
3.309770518303622e-12
1.941795067516947e-12
1.1507012102218865e-12
6.780984334623823e-13
3.934961385197658e-13
2.2364036038866364e-13
1.2416285747744975e-13
6.727967064686044e-14
3.55879939576698e-14
1.8391497300567897e-14
9.297920978356395e-15
4.605872092207851e-15
2.2396142249709432e-15
1.070665853326744e-15
5.035793107381276e-16
2.3305705752168985e-16
1.0643895588159897e-16
4.84943626286937e-17
2.22677179183924e-17
2.6548248695760974e-17
1.1099969780507302e-17
4.689678660622402e-18
2.5009794627488965e-18
1.746884979989833e-18
1.0882005683808769e-18
4.579698060375362e-19
4.426189703583178e-19
1.353810097557157e-18
2.66609585067915e-18
3.3637936316238763e-18
3.0838258665643174e-18
4.554675113225668e-18
2.3723040534934935e-17
1.2990898393428295e-16
5.718008620936954e-16
2.115324877294051e-15
6.862831766230689e-15
2.0079039841132915e-14
5.392944120855033e-14
1.3449846460757235e-13
3.1388638279148643e-13
6.893979466700437e-13
1.431534700081309e-12
2.8211055968967016e-12
5.2919511702006154e-12
9.467298025832513e-12
1.616470344975526e-11
2.6343511007317957e-11
4.104969209358818e-11
6.176917628662171e-11
9.264965368197791e-11
1.485367003316097e-10
2.778053579643494e-10
6.179232818686902e-10
1.515842952141853e-09
3.765302763190447e-09
9.038110897082013e-09
2.061348760676769e-08
4.4532614113234404e-08
9.131489441098841e-08
1.7835294078340526e-07
3.3303243762299015e-07
5.964704277292753e-07
1.0274991884060358e-06
1.7061298228799686e-06
2.735255699483453e-06
4.238953778522695e-06
6.3556960927850104e-06
9.225458439642297e-06
1.2971383056192284e-05
1.7679231255462958e-05
2.3380652966353364e-05
3.004796045919916e-05
3.760701400514043e-05
4.596993973191371e-05
5.508114115636615e-05
6.4960951556802e-05
7.572550794217581e-05
8.756331725388393e-05
0.00010066061366036333
0.00011508685400462089
0.00013067193880625754
0.0001469189365113862
0.0001629927814189691
0.00017780490321733764
0.00019018204226017488
0.00019907663839675006
0.00020375913443618037
0.00020393712849503832
0.0001997711956284897
0.00019179222000121178
0.00018075594979552484
0.00016748542263309837
0.0001527467748899111
0.00013718342787687958
0.00012130816118022123
0.00010553293611104281
9.02089404729355e-05
7.565427935710291e-05
6.21590673673975e-05
4.997061725331865e-05
3.9269693631363914e-05
3.0150439732954393e-05
2.2612823806902306e-05
1.6570285781806564e-05
1.186970527589003e-05
8.317687987142715e-06
5.706809416998536e-06
3.837089501553293e-06
2.5304077330748933e-06
1.6377845100803582e-06
1.040892917152715e-06
6.497344543866435e-07
3.983209886033439e-07
2.397628894232636e-07
1.4163698674026287e-07
8.20605950933621e-08
4.6590899873143195e-08
2.589650896634078e-08
1.40739627563478e-08
7.466955353723098e-09
3.859591259211514e-09
1.9385342744354666e-09
9.430157957717733e-10
4.426388586931346e-10
1.9982582573953355e-10
8.68108718680743e-11
3.681236765828494e-11
1.6034338816247532e-11
8.018897965750933e-12
5.130414407575971e-12
4.051518155671909e-12
3.4766979303714988e-12
2.9759455102956245e-12
2.461663894467403e-12
1.9549600222035693e-12
1.4935736044541104e-12
1.102615974489385e-12
7.905155483000721e-13
5.532684855869302e-13
3.8002741452425184e-13
2.575832484263388e-13
1.732203438022088e-13
1.1615872575766745e-13
7.80050558713776e-14
5.262126815010985e-14
3.5725718279698356e-14
2.4431957328380872e-14
1.6835620266639183e-14
1.1692127895317827e-14