# vtk DataFile Version 4.1 
COMMENT
ASCII
DATASET STRUCTURED_POINTS 
DIMENSIONS 300 300 1 
ORIGIN 0 0 0
SPACING 0.020943951023931952 0.020943951023931952 0 
POINT_DATA 90000
SCALARS U double 1
LOOKUP_TABLE default
4.277774727889503e-19
1.2355895202586983e-18
2.13473761072216e-18
3.8433915691567826e-18
8.250342792967406e-18
1.8263598338167907e-17
3.8573230566832104e-17
7.782311547848396e-17
1.5124384756315868e-16
2.8219971825388063e-16
5.013359413674626e-16
8.426315230685591e-16
1.3413160804823831e-15
2.0655988795237707e-15
3.2977975962111237e-15
6.185984351868635e-15
1.4616405212679013e-14
3.9819843485436025e-14
1.1033119335761338e-13
2.9105821022144896e-13
7.154923990012665e-13
1.6331465675234796e-12
3.469752688642995e-12
6.895797022642046e-12
1.2920082571195403e-11
2.312030553409513e-11
4.03912616408917e-11
7.119056044258428e-11
1.3139858690891283e-10
2.5981215150854285e-10
5.461852517804304e-10
1.1848694021619154e-09
2.570899573604935e-09
5.4635629516650374e-09
1.1254177888869855e-08
2.2390996529815162e-08
4.3034488412997016e-08
8.003714973631739e-08
1.4435443629436247e-07
2.529817674260558e-07
4.3145464527254066e-07
7.168182288168948e-07
1.160742412485522e-06
1.8321092007169987e-06
2.817933780450518e-06
4.220951323116404e-06
6.151749919385509e-06
8.713227516318656e-06
1.1975801398204218e-05
1.594364966796691e-05
2.051557724739208e-05
2.544860563042772e-05
3.0336964395671403e-05
3.4621791087267084e-05
3.7645083633312274e-05
3.875350289385967e-05
3.744367511336627e-05
3.352375514516205e-05
2.7251839015204366e-05
1.9406828068537e-05
1.1256027025784532e-05
4.406038253749599e-06
5.538988145957199e-07
1.184525516930671e-06
7.278652977979409e-06
1.9096357035758812e-05
3.60846594902909e-05
5.6929075917349714e-05
7.97370422909579e-05
0.00010231454570696533
0.00012248172429059226
0.00013837049310878876
0.00014865583891273662
0.00015268880366883805
0.00015051924828925114
0.00014281637792971745
0.00013071141003107955
0.00011559715126483727
9.892219840599127e-05
8.201302853083418e-05
6.594701120460054e-05
5.1486207865611694e-05
3.906901502169714e-05
2.8847046804480366e-05
2.0749689466815482e-05
1.4558560251618805e-05
9.977514468833298e-06
6.689102217189733e-06
4.3937522071037346e-06
2.8322299068803154e-06
1.794533998776362e-06
1.1194062309162558e-06
6.884477887807138e-07
4.1798912517362593e-07
2.508110889024641e-07
1.488685286749641e-07
8.746587590122165e-08
5.089785636177057e-08
2.9349683718083804e-08
1.6779541978543476e-08
9.517290857120011e-09
5.360235962474307e-09
3.001301983500805e-09
1.6733237111811148e-09
9.308475322646679e-10
5.179506350396232e-10
2.8911269053819047e-10
1.6239927282832287e-10
9.208971803819175e-11
5.2865671642630106e-11
3.078794362375295e-11
1.820828476887615e-11
1.0932167376140472e-11
6.65244386125698e-12
4.091578576505258e-12
2.534547419682416e-12
1.575191898892643e-12
9.784705284207532e-13
6.054250889423375e-13
3.720520098964387e-13
2.265186374398996e-13
1.3632900749678897e-13
8.09151696650662e-14
4.722340468532243e-14
2.6993628257034865e-14
1.5033175759593313e-14
8.10268283090226e-15
4.195196146673665e-15
2.0742329779118044e-15
9.825245274199695e-16
4.610915848589418e-16
2.3746067038602267e-16
1.5591554202617384e-16
1.3295959153360764e-16
1.2820333418673695e-16
1.2525005585745905e-16
1.195262206672517e-16
1.1111461296126694e-16
1.0110954605627965e-16
9.024355104370859e-17
7.875179105570065e-17
6.670756184457632e-17
5.435520752038785e-17
4.2232781847371567e-17
3.107298466876624e-17
2.1579972492256368e-17
1.4208740815194857e-17
9.04561935202471e-18
5.831306234896322e-18
4.108095004662654e-18
3.4302425681625443e-18
3.5616405370478754e-18
4.599431882229075e-18
6.998724468142731e-18
1.1518878081142869e-17
1.9150761022253474e-17
3.1104008407504657e-17
4.892646745099275e-17
7.479439327055324e-17
1.1195714761963995e-16
1.6525328197026772e-16
2.4154666343773484e-16
3.498740696026447e-16
5.01066468095084e-16
7.066327766671349e-16
9.76823858582854e-16
1.3180995675615654e-15
1.7308093557650041e-15
2.2089053717340696e-15
2.7450913296318185e-15
3.3471085283122612e-15
4.0739328199367805e-15
5.10440466096994e-15
6.8548982318522625e-15
1.0166436832370772e-14
1.6584377331802064e-14
2.875475689834905e-14
5.096077447914941e-14
8.982272059460593e-14
1.5519049794074987e-13
2.6128107771668336e-13
4.2817564523508673e-13
6.839362617484055e-13
1.067923813477975e-12
1.6366153836462787e-12
2.474838650950581e-12
3.719022399858159e-12
5.6073305119739054e-12
8.589626984813949e-12
1.3568368284299688e-11
2.2418826504871628e-11
3.9087152591340183e-11
7.184359635743854e-11
1.3776257860614575e-10
2.7133542679810377e-10
5.404532552089266e-10
1.074990561790896e-09
2.1159715427765193e-09
4.096695903518232e-09
7.77067345531545e-09
1.440342240044917e-08
2.6043647140968088e-08
4.5880201148703674e-08
7.866959952591383e-08
1.31179635470722e-07
2.1253506451727586e-07
3.3427454249141516e-07
5.09848151544692e-07
7.532317995139748e-07
1.0763565514683538e-06
1.485210176493819e-06
1.974828777112273e-06
2.5239975825709343e-06
3.091298523802739e-06
3.6150490501316204e-06
4.020404152363232e-06
4.237036783915842e-06
4.22989190757869e-06
4.043118271728559e-06
3.853302567596839e-06
4.02298007178227e-06
5.140191361201897e-06
8.0263686149361e-06
1.3695132826441052e-05
2.3250337155370733e-05
3.772332850116166e-05
5.7865405071768245e-05
8.392821713003522e-05
0.00011547736465555302
0.00015128770117707333
0.00018935974193285635
0.00022707536567644895
0.00026148184117500664
0.0002896632520054301
0.0003091357329091853
0.0003181940762350842
0.0003161450457603197
0.0003033853909946345
0.00028131431624620735
0.00025210302525849256
0.0002183700635095636
0.00018282492955412922
0.0001479418354701166
0.00011571233076548331
8.750435557052342e-05
6.403196810711555e-05
4.54198311426014e-05
3.133315010313901e-05
2.113850863737093e-05
1.4063296977425521e-05
9.329144853736336e-06
6.245300003847972e-06
4.258603713459161e-06
2.9654649048922624e-06
2.0966796408302473e-06
1.487689025947616e-06
1.0454348775275124e-06
7.195394090738756e-07
4.815204050575147e-07
3.123596875678988e-07
1.966445421311483e-07
1.2077616096006186e-07
7.302397433533487e-08
4.396907874924728e-08
2.666694033477783e-08
1.6412765550794457e-08
1.02575092048149e-08
6.469731281940321e-09
4.077415664880554e-09
2.5414974039549763e-09
1.553906684803819e-09
9.268232080776169e-10
5.376312752065248e-10
3.0296143587266147e-10
1.6587340108029174e-10
8.832790715557793e-11
4.581658190623758e-11
2.3192052429666828e-11
1.147805593916848e-11
5.564217940449919e-12
2.646573495619801e-12
1.237078758111237e-12
5.69161936649646e-13
2.582098702929208e-13
1.1575584938473921e-13
5.141252667974467e-14
2.2686646606238473e-14
9.970523037370863e-15
4.37040465837348e-15
1.910622004868196e-15
8.320015021082071e-16
3.59784697756905e-16
1.5337886217614849e-16
6.371686662536366e-17
2.5779858946854656e-17
1.0617652706333792e-17
4.732657731407487e-18
2.0387331141888874e-18
5.296148768616761e-19
2.032079236408042e-20
9.23613543171709e-19
9.739759142439272e-19
7.643109491962502e-19
1.0688420352324834e-18
2.981358492079362e-18
7.406524623425893e-18
1.5899055956277848e-17
3.250596259255383e-17
6.546657713881445e-17
1.2862537680486472e-16
2.437280051856711e-16
4.451679221055917e-16
7.91535357582438e-16
1.4028702255187739e-15
2.5860851901578142e-15
5.215753931796061e-15
1.1756003518484242e-14
2.869672341221117e-14
7.171795513942026e-14
1.7534507553298645e-13
4.0851777458703804e-13
8.95154071288753e-13
1.833467093568506e-12
3.5015958097463985e-12
6.24184536279891e-12
1.0464168134183025e-11
1.6868500464173582e-11
2.7465571897926015e-11
4.872590026632505e-11
9.947583307821316e-11
2.2816662234990735e-10
5.471072472981009e-10
1.2956358519862416e-09
2.9509384096008195e-09
6.4158501493400815e-09
1.3329345067392399e-08
2.6568557919395576e-08
5.103922819470905e-08
9.487701816697948e-08
1.7118995336950425e-07
3.004380044425924e-07
5.134375122955234e-07
8.547604066338716e-07
1.3859421383516376e-06
2.1874139371496767e-06
3.3574854905146726e-06
5.0061703914023155e-06
7.241448848626069e-06
1.014611286301994e-05
1.3745094071271155e-05
1.7966412423830768e-05
2.2603372955224206e-05
2.7290315975909606e-05
3.1507132800442946e-05
3.462647320049604e-05
3.601022780319801e-05
3.514847593114906e-05
3.181747531025879e-05
2.621890385252262e-05
1.9056867286924717e-05
1.151676804795092e-05
5.131174816732085e-06
1.5471170658885671e-06
2.2376091382235755e-06
8.218120518593848e-06
1.9830090865455685e-05
3.663827502661493e-05
5.7462157395989965e-05
8.053235088760521e-05
0.00010373873973708385
0.0001249229720112405
0.0001421647746722784
0.0001540176513357469
0.00015966187907699508
0.0001589584878966665
0.00015240467375326753
0.00014100663819862583
0.00012609788757199153
0.000109137471651382
9.152226222096927e-05
7.444044861500689e-05
5.878191515923512e-05
4.510815864243666e-05
3.367312695091151e-05
2.4479148791800133e-05
1.7349830134955052e-05
1.2003791635923752e-05
8.117819148367212e-06
5.373540081381734e-06
3.486607168994091e-06
2.2207148314439434e-06
1.3904132432303863e-06
8.569234584530976e-07
5.205114860263153e-07
3.119608555866522e-07
1.846668430216197e-07
1.0806539103145344e-07
6.256760053571619e-08
3.5869164386660384e-08
2.0377897163972412e-08
1.148325862614359e-08
6.425643502122271e-09
3.575221964101127e-09
1.981339409301351e-09
1.095958595813077e-09
6.066138610491782e-10
3.3698112461812996e-10
1.885002110161498e-10
1.0654189076742823e-10
6.104085540500192e-11
3.55391940221233e-11
2.105635705613049e-11
1.2694333067685379e-11
7.774430786459609e-12
4.822168957320018e-12
3.017160153449006e-12
1.8958743320107816e-12
1.1911187602576214e-12
7.451683248652893e-13
4.625074875218799e-13
2.8387108538062186e-13
1.7174946823841337e-13
1.0208881134490403e-13
5.937526433040095e-14
3.3610212051673085e-14
1.8383943895977724e-14
9.620068172371754e-15
4.749858508938612e-15
2.1711681764949155e-15
8.974139220643015e-16
3.3217900663311285e-16
1.251337793861092e-16
7.959464436186893e-17
9.268950592361807e-17
1.1644632453520409e-16
1.3277883800942125e-16
1.380198810114121e-16
1.340679653364861e-16
1.2396282312269362e-16
1.101877732496006e-16
9.441118557877784e-17
7.778167489734195e-17
6.126168828714761e-17
4.5782587380887776e-17
3.220592928428104e-17
2.1179212399029452e-17
1.2998020701221757e-17
7.557834329145948e-18
4.426028810789955e-18
3.0114976157925946e-18
2.7728184374392833e-18
3.3951341531430283e-18
4.882070543099397e-18
7.545571668046763e-18
1.1921171165424805e-17
1.8674087317177082e-17
2.857939264475777e-17
4.264931757750975e-17
6.244145232138801e-17
9.051876959886468e-17
1.3095625349353274e-16
1.8971242306470037e-16
2.7462224972977575e-16
3.94739952076229e-16
5.587933763849721e-16
7.726481431005864e-16
1.0359823867562429e-15
1.3389299207393592e-15
1.6603733475757622e-15
1.9709840108193622e-15
2.246122196528752e-15
2.4963712769795874e-15
2.8266827519983664e-15
3.5385174679187974e-15
5.2923226612145534e-15
9.349180653592774e-15
1.7909257897662757e-14
3.455958730163822e-14
6.483415081532693e-14
1.1687606309368602e-13
2.021786640850222e-13
3.363794709641389e-13
5.40113245659565e-13
8.400619369156898e-13
1.2707328921910649e-12
1.878551891329219e-12
2.732502044141417e-12
3.951807893904293e-12
5.775273097534206e-12
8.727115228197085e-12
1.3995966420290241e-11
2.4264544526904756e-11
4.545341658998866e-11
9.024611043851322e-11
1.8495146270240998e-10
3.823742286727737e-10
7.850662851953525e-10
1.5857431170729087e-09
3.1347508079345046e-09
6.047889889434634e-09
1.1370644914245232e-08
2.081496535557116e-08
3.707899979430518e-08
6.424424142782064e-08
1.0821362171414485e-07
1.7710484296265922e-07
2.8144697686239337e-07
4.339554870392817e-07
6.48605602571448e-07
9.387273850242796e-07
1.3139636295516505e-06
1.7762236022624929e-06
2.31527267149998e-06
2.9053085658459322e-06
3.504685060747694e-06
4.061624659273601e-06
4.528958330551514e-06
4.890214855477709e-06
5.1973806686883635e-06
5.617236105909424e-06
6.478680569158625e-06
8.308832291286487e-06
1.1842450190466399e-05
1.7989169223563632e-05
2.7747648543051525e-05
4.206544824608146e-05
6.165708656321095e-05
8.680732087024918e-05
0.00011719804441583135
0.00015180105966595446
0.0001888726116451081
0.00022606889131429232
0.00026067784914765227
0.0002899371801613537
0.0003113877475546076
0.00032320145689346486
0.0003244254774837525
0.00031510013283859143
0.00029623203682305324
0.0002696314404227139
0.00023764714161861352
0.0002028486335158073
0.0001677105407656867
0.0001343486138515275
0.00010434189702655709
7.865615952603968e-05
5.7663884799239186e-05
4.12401189505116e-05
2.8903970360203405e-05
1.9973430376653352e-05
1.3705650089522998e-05
9.40379166279216e-06
6.482368116358546e-06
4.492930370553492e-06
3.1190391742649906e-06
2.1527048608163534e-06
1.4640690523087124e-06
9.731301030158565e-07
6.282952958017479e-07
3.9287300056580316e-07
2.3816773830702715e-07
1.4082623809248897e-07
8.220058341870905e-08
4.820646069230415e-08
2.8958677823422583e-08
1.8057140805214867e-08
1.1687284913652486e-08
7.750783551045385e-09
5.169948367705886e-09
3.410929895351365e-09
2.2001747728878954e-09
1.3783700426287023e-09
8.362328350980269e-10
4.910226154431955e-10
2.7929717443379517e-10
1.5415276229004267e-10
8.273135920089178e-11
4.327314026320157e-11
2.2110802220872367e-11
1.1061325115254633e-11
5.429437525151954e-12
2.620159092815172e-12
1.2456029456493456e-12
5.844826543322079e-13
2.7126637814005706e-13
1.247858407194418e-13
5.700871656484678e-14
2.5906137143011812e-14
1.1719244557865888e-14
5.276688905744105e-15
2.3618711577546964e-15
1.0483521693298076e-15
4.597273569686808e-16
1.9860776243581674e-16
8.484657479636941e-17
3.628921590546732e-17
1.5496756121204736e-17
6.2103280770505924e-18
2.150816544635567e-18
9.064429442360669e-19
2.4875839503968318e-18
1.1665013980906702e-18
1.8100659846397113e-19
1.6398939748664185e-19
1.3347746000264334e-18
3.34028597022895e-18
6.502449577015395e-18
1.3121167955566548e-17
2.7881371788148413e-17
5.84182381005387e-17
1.1806263142952067e-16
2.3218376348141877e-16
4.50984375459209e-16
8.806118892490211e-16
1.7684035318927655e-15
3.7324273227573626e-15
8.338312700051243e-15
1.942620816898678e-14
4.5859643398914314e-14
1.0653619656315078e-13
2.380750482300536e-13
5.036453593983916e-13
9.9690324889406e-13
1.8285970427690383e-12
3.0817694091921437e-12
4.745280942445565e-12
6.7292183950369294e-12
9.305020727818392e-12
1.4800133664301227e-11
3.22255245937599e-11
8.784417421448684e-11
2.466803419936006e-10
6.530384982370885e-10
1.6031875750675922e-09
3.6721887654422547e-09
7.931783071790479e-09
1.631945542058418e-08
3.225025275663593e-08
6.159770609372787e-08
1.141953234780196e-07
2.0600217587470882e-07
3.6200068919612476e-07
6.19709560697352e-07
1.03285908903973e-06
1.6742713318935851e-06
2.63635047211039e-06
4.026958204441834e-06
5.95810654316147e-06
8.525273276841422e-06
1.1776718366333013e-05
1.5675277302759343e-05
2.0059559185917584e-05
2.461628811074597e-05
2.8878785317920655e-05
3.226587016639149e-05
3.416880575777394e-05
3.408116153419666e-05
3.175022501120332e-05
2.7314167185805408e-05
2.1382919228620515e-05
1.5027339364444253e-05
9.661086860437472e-06
6.827633161310937e-06
7.932052239265481e-06
1.397428243042822e-05
2.5341673167479967e-05
4.1704018373744284e-05
6.202965074762419e-05
8.471486572005204e-05
0.00010779824029355182
0.00012922001563830737
0.00014708445219012295
0.00015988745825680194
0.000166680134982057
0.00016714952201582673
0.00016161008926971694
0.00015091272080168365
0.00013629052286811855
0.00011917030734782124
0.00010098259193520233
8.300016340825717e-05
6.62263903539521e-05
5.1342109749527795e-05
3.870749936850876e-05
2.8405963652599598e-05
2.0312436352368783e-05
1.4168703636210262e-05
9.652109802862195e-06
6.429440412228979e-06
4.193113794077871e-06
2.6808720508373442e-06
1.6824962762424115e-06
1.0378208450522701e-06
6.299604219118366e-07
3.767337898114886e-07
2.22212558315302e-07
1.294122887191577e-07
7.449053966887155e-08
4.242172239914093e-08
2.392720704384596e-08
1.3381293307172162e-08
7.429286226678672e-09
4.10076308002357e-09
2.254237121552085e-09
1.2367093301587555e-09
6.788836000619019e-10
3.7406710255605384e-10
2.0764921993907573e-10
1.1659972137226245e-10
6.649750784837856e-11
3.864954454232618e-11
2.2942328842796474e-11
1.3911923089793443e-11
8.601589733620594e-12
5.402422757042233e-12
3.4296699749926126e-12
2.188695786426689e-12
1.3965328781434002e-12
8.865853141524331e-13
5.575912150872729e-13
3.4606674790015865e-13
2.1118023705249176e-13
1.2621202142167204e-13
7.353387132880103e-14
4.1513801716046186e-14
2.252098704018677e-14
1.1598217604882157e-14
5.565040758189756e-15
2.4112464032557064e-15
8.89673149587874e-16
2.4539752306290807e-16
3.693035522917928e-17
1.8629099666008066e-17
6.363908290368723e-17
1.138620287049963e-16
1.4820764708587753e-16
1.6332096031865396e-16
1.6272732693807906e-16
1.5142525432383369e-16
1.3373215273618714e-16
1.1282348434711216e-16
9.095145122757982e-17
6.97760885204635e-17
5.0570108170450714e-17
3.426528912217314e-17
2.140858391319459e-17
1.211866845630811e-17
6.109249558355387e-18
2.800943142012751e-18
1.4994258358118307e-18
1.5878729920225535e-18
2.674263451007366e-18
4.650334407080439e-18
7.653515736127187e-18
1.196503936031858e-17
1.791252453579662e-17
2.5860450844480352e-17
3.635848293094008e-17
5.047407067145897e-17
7.026784351180832e-17
9.928951047555955e-17
1.4289335310277503e-16
2.0811335621733098e-16
3.028187578206511e-16
4.3391685943631775e-16
6.045163872599147e-16
8.10260903837504e-16
1.0355552356304254e-15
1.2512245640041509e-15
1.4163629057026371e-15
1.4888325284618046e-15
1.4511031391776629e-15
1.360779860761535e-15
1.4379460697810822e-15
2.203677173620764e-15
4.684640372409013e-15
1.0695941127612386e-14
2.3206193379612357e-14
4.677277716024094e-14
8.800912828178283e-14
1.560084606174945e-13
2.6260194261001493e-13
4.2228738033878923e-13
6.516710394434032e-13
9.684442372124623e-13
1.3905819679256663e-12
1.9383394776655157e-12
2.646348444304948e-12
3.6040148832017875e-12
5.066048458508443e-12
7.723568190979875e-12
1.3321727977961934e-11
2.5989435652174743e-11
5.497051531338854e-11
1.2000410021656417e-10
2.615201979002712e-10
5.592455749006927e-10
1.1648974181631006e-09
2.3574260144313294e-09
4.632550779806041e-09
8.841421533050329e-09
1.6394636299570346e-08
2.954499150920024e-08
5.175153862327575e-08
8.810444369425643e-08
1.4575123499841184e-07
2.3421013433563513e-07
3.6539242746997796e-07
5.531020169090715e-07
8.117700473817911e-07
1.1542635140636942e-06
1.5888326154106657e-06
2.115673007246495e-06
2.7241743060773513e-06
3.3926251409295438e-06
4.092759384329766e-06
4.801756275214178e-06
5.523776945925533e-06
6.321495711423683e-06
7.355233352457061e-06
8.923478476149329e-06
1.1494570878954547e-05
1.5716397888154302e-05
2.2390649843546305e-05
3.240178312901917e-05
4.659878577921501e-05
6.563921143210033e-05
8.981733683783075e-05
0.00011890825434386369
0.00015206371469396855
0.00018779123040358586
0.00022403514955664079
0.0002583594351254408
0.00028821102996366607
0.0003112249829733597
0.0003255222541979179
0.0003299507053229183
0.00032422922197987815
0.0003089720259537014
0.00028559135737165215
0.0002560975861287087
0.00022283245665985206
0.00018818056354247002
0.0001543047851021965
0.0001229435476476269
9.529347508044642e-05
7.198351596716136e-05
5.3129870427344126e-05
3.844839751193031e-05
2.7394896828300126e-05
1.930428056334126e-05
1.3506060708492318e-05
9.403404993177316e-06
6.513391659049695e-06
4.474461418985467e-06
3.031844905161526e-06
2.012632678577032e-06
1.2999899809498862e-06
8.122914586285424e-07
4.891898097849911e-07
2.8390150724682827e-07
1.5968055066756818e-07
8.83572456459951e-08
4.942971234220986e-08
2.8981741505179054e-08
1.8309978713311333e-08
1.2451789850381962e-08
8.857295241791053e-09
6.361515734839446e-09
4.49407972301741e-09
3.077786493191538e-09
2.0307536230155223e-09
1.2890331716162812e-09
7.879323905161655e-10
4.648086573297966e-10
2.6533312056418954e-10
1.4699348099024885e-10
7.926155192602203e-11
4.1717991272032435e-11
2.1491405236018137e-11
1.0864361193747769e-11
5.402421733703992e-12
2.6484873667778003e-12
1.2827782038611362e-12
6.150433793199595e-13
2.92437799311661e-13
1.3809515671001361e-13
6.48317500771506e-14
3.027233807021201e-14
1.4055127793853595e-14
6.4822887862875015e-15
2.9650991852562545e-15
1.3428168081418206e-15
6.016643326692375e-16
2.671299459658471e-16
1.1774644552280392e-16
5.1271489337981884e-17
2.1797089880497515e-17
9.252322776894373e-18
4.421934923893067e-18
7.426369031496115e-18
2.9225536916723835e-18
8.302927965118782e-19
6.185352064908409e-19
1.2738004245908743e-18
1.761197381043523e-18
2.329074520430723e-18
4.783033548711491e-18
1.1684442242426708e-17
2.650103792224639e-17
5.637459189117891e-17
1.176238565054258e-16
2.453951415118113e-16
5.155179584479382e-16
1.1004367192700907e-15
2.409698268595688e-15
5.425176919163381e-15
1.2447891546459274e-14
2.861409237286825e-14
6.460558510402373e-14
1.4064965519790794e-13
2.9052130983355236e-13
5.609877996165388e-13
9.969952582859588e-13
1.5996679625515221e-12
2.25590429396162e-12
2.6944825056374712e-12
2.6747316084840175e-12
2.927401340013839e-12
7.913071335115976e-12
3.2306678123203425e-11
1.1436840775173126e-10
3.413463972428719e-10
8.956192182105065e-10
2.1371138204170743e-09
4.75021359024548e-09
1.0004772236174647e-08
2.0212534755106213e-08
3.9499884657312733e-08
7.505580918995928e-08
1.390300937366261e-07
2.512177280499047e-07
4.42525456532007e-07
7.589241102313677e-07
1.26510868130458e-06
2.046430471966141e-06
3.2069480420679894e-06
4.8609357374958885e-06
7.115326479802545e-06
1.0041872517920016e-05
1.3640677396941789e-05
1.78011046632701e-05
2.2270999201329054e-05
2.664880996500218e-05
3.0413134971781064e-05
3.299835476100598e-05
3.391301814013909e-05
3.288189085122162e-05
2.9978208086687668e-05
2.570599952405543e-05
2.0998125031692723e-05
1.7114331723268367e-05
1.5450287358192603e-05
1.729429633588009e-05
2.358409665833677e-05
3.4716372640536664e-05
5.0447122993676374e-05
6.989799084341353e-05
9.16605137146277e-05
0.00011397368229510032
0.00013494267227201284
0.0001527664699776028
0.00016594577475635805
0.00017344721896953697
0.00017480500835536237
0.0001701477337015092
0.00016014757502279974
0.00014590104122563246
0.00012876231780687564
0.00011015868639322992
9.141942815911865e-05
7.364432587180768e-05
5.7627035528007066e-05
4.38356370840893e-05
3.2441316956516605e-05
2.3379044085418846e-05
1.642216925488513e-05
1.125532129092637e-05
7.53500009755629e-06
4.932902015549981e-06
3.1617478655499857e-06
1.986456591157182e-06
1.224853819778341e-06
7.421124334792857e-07
4.4234471384604417e-07
2.59705528046081e-07
1.5036732068375703e-07
8.596098657015089e-08
4.857939801099719e-08
2.7173121039842385e-08
1.5062962626239958e-08
8.285860225977404e-09
4.5294466141441644e-09
2.464625705598093e-09
1.3376141158917703e-09
7.259401487588978e-10
3.952796704385265e-10
2.1685655869908606e-10
1.204758231543023e-10
6.81508635073034e-11
3.9454267087178695e-11
2.345764745431247e-11
1.4334787254725773e-11
8.982295593086489e-12
5.741880251763454e-12
3.719260522696692e-12
2.4236773628533743e-12
1.5783254212356902e-12
1.021184560282299e-12
6.532618521773352e-13
4.114742432414679e-13
2.54222385605365e-13
1.5345964639091977e-13
9.009429622346567e-14
5.114112933316001e-14
2.7841468100057384e-14
1.436541994766078e-14
6.8968045415797905e-15
2.9864484942800703e-15
1.0991386872879558e-15
3.003490462708653e-16
4.2479858890829874e-17
2.0849695040026302e-17
7.805781403005986e-17
1.4172919574866648e-16
1.8522355615001127e-16
2.039875445983172e-16
2.0230175850387121e-16
1.8661864899763752e-16
1.6277369069639372e-16
1.3521786597334993e-16
1.0711072039465778e-16
8.063630375071439e-17
5.726371367760811e-17
3.788870075358235e-17
2.2895266038932883e-17
1.2203171214729915e-17
5.3515339608929794e-18
1.6350483680001154e-18
2.7513810198636457e-19
5.851171814596015e-19
2.083179227915793e-18
4.5217368134545566e-18
7.832408368296886e-18
1.2023272887245891e-17
1.709584375263874e-17
2.306072424193197e-17
3.011447959619288e-17
3.8994280300799775e-17
5.1457453693667127e-17
7.075282357405531e-17
1.0187640046516218e-16
1.51354448601388e-16
2.2629216766697605e-16
3.3248805439488345e-16
4.715686844226959e-16
6.373805294188362e-16
8.123311128505659e-16
9.650628869269293e-16
1.0518437972224713e-15
1.0254412334940327e-15
8.570471052300415e-16
5.789740293432311e-16
3.5806931023495487e-16
6.114634359840265e-16
2.176231327231203e-15
6.540969231023321e-15
1.6137571407158913e-14
3.46722471268415e-14
6.744209974247779e-14
1.2153359571362791e-13
2.0573053385716692e-13
3.2987886802458836e-13
5.033961849632054e-13
7.326713913112142e-13
1.0175229118353034e-12
1.3482491236768627e-12
1.7083690707914605e-12
2.0964966767749437e-12
2.5989761346483806e-12
3.5824238256091367e-12
6.149274567100033e-12
1.3139337152772896e-11
3.1214792801870464e-11
7.501039505019525e-11
1.7507323738381333e-10
3.924969975504334e-10
8.44923306298893e-10
1.7510367890747434e-09
3.5037487934614587e-09
6.785508544176953e-09
1.274152691801426e-08
2.322617048036397e-08
4.113137536227949e-08
7.07898827409555e-08
1.18416916522073e-07
1.925104552124241e-07
3.040768859257979e-07
4.6649937997265415e-07
6.948472365952746e-07
1.0044749747688973e-06
1.4089263141213137e-06
1.917478630694062e-06
2.5331435824529643e-06
3.2525211764752722e-06
4.0694380462735236e-06
4.984537765151393e-06
6.022616990538208e-06
7.258222511894177e-06
8.847707987523855e-06
1.1062783567390461e-05
1.4317203025901326e-05
1.917567608176034e-05
2.633364691161984e-05
3.65593418363883e-05
5.0595867415525e-05
6.90304266823593e-05
9.214798141378756e-05
0.00011979512082043375
0.00015128363889616082
0.00018536045090384733
0.00022026081208320245
0.00025384713060621266
0.0002838192813208577
0.0003079680060941464
0.00032443388334515007
0.0003319322088354653
0.00032990907831585513
0.0003186047937027182
0.00029901538809372244
0.0002727591410957462
0.00024186986515469699
0.00020854999859525142
0.00017492205415130667
0.00014281552406546924
0.00011361805759382811
8.820628236790491e-05
6.695601747416579e-05
4.9817377625602515e-05
3.6430539783731684e-05
2.6254577972479016e-05
1.8684822439810756e-05
1.3142023166850254e-05
9.126480066153529e-06
6.2393763851124565e-06
4.179681742511883e-06
2.7273088340538922e-06
1.7221480852715997e-06
1.0454885331654715e-06
6.06725304746557e-07
3.3537870151585405e-07
1.7688067146228242e-07
9.025967055827557e-08
4.632354892121596e-08
2.566959051973482e-08
1.6452612746542822e-08
1.2153236875602075e-08
9.632256658631178e-09
7.647606881101574e-09
5.865336392407786e-09
4.288775388680677e-09
2.9835507689271976e-09
1.9791087218333452e-09
1.2564897147337958e-09
7.66603383355696e-10
4.5128573951240727e-10
2.5731847562498337e-10
1.4262951534057325e-10
7.711849924009339e-11
4.080570415982863e-11
2.119365032569832e-11
1.0834839712097736e-11
5.4660086434111216e-12
2.7272581236420856e-12
1.3484329341840987e-12
6.616984493079591e-13
3.226376052514976e-13
1.564158245969848e-13
7.54080690117798e-14
3.613804121955141e-14
1.7201682693469464e-14
8.124171912643029e-15
3.803453087970011e-15
1.7644577626041844e-15
8.114208177420254e-16
3.7001689727873503e-16
1.6722518726265856e-16
7.50897956876597e-17
3.4044817532346905e-17
1.5939925532149113e-17
2.475958671515826e-17
1.0810834541200166e-17
4.837641204526126e-18
2.868928642843502e-18
2.041235424837606e-18
1.0120679499464992e-18
3.7668325578139684e-19
1.5354942041901675e-18
5.266613845262577e-18
1.2294081831970932e-17
2.616263602749308e-17
5.70488430546814e-17
1.272808956951643e-16
2.848821807933063e-16
6.39277789107107e-16
1.4480827230672972e-15
3.3165859987169856e-15
7.632097781999123e-15
1.7436818932852397e-14
3.898225686980894e-14
8.400546758928431e-14
1.718919343493493e-13
3.287343268646209e-13
5.766910875765183e-13
9.041483179146212e-13
1.213259513211048e-12
1.2759264791588337e-12
8.25783475594249e-13
1.1516017712478686e-13
1.6100354199605748e-12
1.4006082533163151e-11
6.047447846264544e-11
1.9421492156740807e-10
5.267059244738601e-10
1.279028108555193e-09
2.8768278130528216e-09
6.12806718429084e-09
1.2552307364012893e-08
2.4970811008239945e-08
4.8512333962108456e-08
9.22245559199756e-08
1.7147644448684284e-07
3.112470813208319e-07
5.501633946371827e-07
9.447178690549814e-07
1.5724521123098247e-06
2.532114470386904e-06
3.938131307047162e-06
5.906604029653703e-06
8.531016505180149e-06
1.1848386126943664e-05
1.5800755056981502e-05
2.0201913667305596e-05
2.4723298426494078e-05
2.8913655082554244e-05
3.226211218661572e-05
3.4303190679810076e-05
3.4747137778768854e-05
3.360477302398766e-05
3.1269025321283896e-05
2.8520317555974255e-05
2.644047795490128e-05
2.62450728542429e-05
2.9068171335819176e-05
3.574757064791952e-05
4.665742250585507e-05
6.162033974190027e-05
7.990925257623643e-05
0.00010032921235810523
0.00012135725275045701
0.00014131554336283935
0.0001585560789447003
0.0001716390524492379
0.00017948859277502923
0.000181508937320811
0.00017764439574920394
0.00016837103849323977
0.00015461812159723234
0.0001376307908751978
0.00011879818957281675
9.947816381838046e-05
8.084878341813369e-05
6.380840385779926e-05
4.893312592338796e-05
3.648748298304103e-05
2.64745934897508e-05
1.8707685913011826e-05
1.2885683690612868e-05
8.659851403559843e-06
5.68424467339219e-06
3.6480462412753073e-06
2.291706989114095e-06
1.410827376956511e-06
8.521742808668088e-07
5.056686671999267e-07
2.9515514350385396e-07
1.6969326452831747e-07
9.62294966382404e-08
5.390010367455792e-08
2.9861792795291906e-08
1.638636862488329e-08
8.918075315917657e-09
4.820159054531028e-09
2.591053932250032e-09
1.3876102235151612e-09
7.420747665804275e-10
3.9762007924132366e-10
2.1448720998650825e-10
1.1723077532330986e-10
6.543030063936189e-11
3.759076563455019e-11
2.2365672061781508e-11
1.3807240945966435e-11
8.814809518682419e-12
5.7751881021701345e-12
3.8449819297253096e-12
2.5759635847893803e-12
1.7220080018199663e-12
1.1409686612805415e-12
7.454525191289961e-13
4.783111067896151e-13
3.0035030049580127e-13
1.8394237912030134e-13
1.0944361419439705e-13
6.295802211320984e-14
3.479029846593664e-14
1.830285340900214e-14
9.050969264044243e-15
4.1312393749620816e-15
1.6994929900371906e-15