# vtk DataFile Version 4.1 
COMMENT
ASCII
DATASET STRUCTURED_POINTS 
DIMENSIONS 300 300 1 
ORIGIN 0 0 0
SPACING 0.020943951023931952 0.020943951023931952 0 
POINT_DATA 90000
SCALARS U double 1
LOOKUP_TABLE default
7.294712499681229e-19
5.774197997356393e-19
4.377399227013041e-19
6.752398894358029e-19
1.8731124950058673e-18
5.2961428611019444e-18
1.3990265993559632e-17
3.533708336751958e-17
8.605755538867626e-17
1.9996371932995959e-16
4.3758154311719745e-16
8.936539808728538e-16
1.6908518850573767e-15
2.9394534601791655e-15
4.656521604909211e-15
6.740479539349173e-15
9.443313458363275e-15
1.568878534969228e-14
3.8603242033950993e-14
1.2159736082790215e-13
3.854569414575439e-13
1.1290339333106054e-12
3.031087768885663e-12
7.539989159248557e-12
1.761808954982629e-11
3.917764023401352e-11
8.389678881358308e-11
1.7478367414827342e-10
3.5706135083855044e-10
7.188934306325346e-10
1.4293337637760672e-09
2.804704131946993e-09
5.4191835836452275e-09
1.0280174734368203e-08
1.9092950701789086e-08
3.4640545189574195e-08
6.130162433525352e-08
1.0571864925406857e-07
1.7760851191858146e-07
2.9067541760592846e-07
4.635368707342515e-07
7.204990987578881e-07
1.0919015075256336e-06
1.6135710877462089e-06
2.3246848355424506e-06
3.2630874600800327e-06
4.457016353711637e-06
5.912533765128208e-06
7.597098186526776e-06
9.421819368571996e-06
1.1227797919857153e-05
1.2784650634998427e-05
1.3810345866141447e-05
1.4019165293558716e-05
1.3198056713353433e-05
1.1301577793981523e-05
8.54480026424211e-06
5.466112801744738e-06
2.9318603361289133e-06
2.0641845478172975e-06
4.090946392132431e-06
1.0137607912457022e-05
2.0999084201632557e-05
3.693910379347296e-05
5.7562449630172737e-05
8.179206399277941e-05
0.00010796194609254036
0.00013401329373297145
0.00015776078459465718
0.00017718249651987232
0.00019068319902509773
0.00019728705757179185
0.00019673060455461575
0.00018944681093698075
0.0001764517716723883
0.0001591623192635087
0.00013918231552758077
0.00011809599975427257
9.72995107992857e-05
7.788936601742676e-05
6.061294093754508e-05
4.587419586190783e-05
3.378018811391078e-05
2.4210925906582373e-05
1.689620109587874e-05
1.1486769805081531e-05
7.612059214937393e-06
4.921175386244273e-06
3.107572116128119e-06
1.920010677263308e-06
1.16346490140787e-06
6.936888718603959e-07
4.0862011363726053e-07
2.3896733217548997e-07
1.394773823324929e-07
8.164623338115311e-08
4.810316983108193e-08
2.8562663539307582e-08
1.707199322805859e-08
1.0236270456991312e-08
6.127672894288189e-09
3.6434778305577286e-09
2.141765133887897e-09
1.2400881398649954e-09
7.055002700024326e-10
3.9399771557560546e-10
2.1618336866263658e-10
1.1692216879640495e-10
6.273582049569659e-11
3.374505639217458e-11
1.8460336919065984e-11
1.0438084002291383e-11
6.178226144600306e-12
3.84037499462641e-12
2.4864668123138785e-12
1.6505626319768693e-12
1.1041685574115028e-12
7.336346531954446e-13
4.790450629435155e-13
3.05299511033241e-13
1.8918819769366997e-13
1.1393268633566184e-13
6.694304032166241e-14
3.8812719333856143e-14
2.2715383732722513e-14
1.3904816665795872e-14
9.24691030732211e-15
6.791821838692378e-15
5.408766640963001e-15
4.4970708599017026e-15
3.7741107287205985e-15
3.130996198886051e-15
2.5419650655395247e-15
2.0126393602261866e-15
1.554034259535215e-15
1.1720864573401239e-15
8.654858164295703e-16
6.271948735998467e-16
4.470121226449965e-16
3.1387891112124926e-16
2.1745457956871402e-16
1.4893050362943555e-16
1.0125165113565255e-16
6.896706385357699e-17
4.7909763357361696e-17
3.4855744325101136e-17
2.7254234214023344e-17
2.3067970643673148e-17
2.071785025425474e-17
1.9094542247827215e-17
1.758406688859542e-17
1.6057117658971965e-17
1.47916908912853e-17
1.43290882570033e-17
1.5294154839131643e-17
1.8230132717124985e-17
2.349800715482224e-17
3.1267151211124456e-17
4.1583573856912876e-17
5.4456365162552126e-17
6.986918386281734e-17
8.762105468690974e-17
1.0694704242715286e-16
1.2597628795126192e-16
1.412529051923938e-16
1.477592975010692e-16
1.4011201202426883e-16
1.1581496844182537e-16
8.164376726369031e-17
6.444359102525287e-17
1.2797762862939766e-16
3.981522099235902e-16
1.1001270627329322e-15
2.6124191816553805e-15
5.544512285837588e-15
1.0844188768723124e-14
1.9936161515772796e-14
3.488083393402784e-14
5.851676329868427e-14
9.450866770344604e-14
1.4716264917768757e-13
2.2079425615630738e-13
3.183554882683458e-13
4.389816239629119e-13
5.742165624909489e-13
7.032182357542357e-13
7.890246944101496e-13
7.829099227199435e-13
6.563839328726767e-13
5.099129706047752e-13
8.729116150536308e-13
3.4470709842831628e-12
1.2819665530860281e-11
4.0195975950486504e-11
1.1114820621098271e-10
2.8101788594525833e-10
6.643015835610823e-10
1.4885259069021772e-09
3.189171799764735e-09
6.570266340340825e-09
1.3064765455866653e-08
2.5137943628669215e-08
4.6881767470362985e-08
8.484200512320473e-08
1.4909306410711482e-07
2.545168031315816e-07
4.221403224842649e-07
6.80239652201194e-07
1.064730538588847e-06
1.6181752834140664e-06
2.38659540365072e-06
3.413282728946742e-06
4.729055524256845e-06
6.339017205698219e-06
8.206906981886699e-06
1.0239553869335668e-05
1.2275576568903801e-05
1.408393438116518e-05
1.5378649109790198e-05
1.5855269321318278e-05
1.525175763238822e-05
1.3431096038253888e-05
1.0475360129877197e-05
6.7726518165270045e-06
3.0715205530944222e-06
4.754623637597749e-07
3.556533372409776e-07
4.174585394273825e-06
1.3235243844538114e-05
2.8395056758904785e-05
4.980362136606472e-05
7.67303387380761e-05
0.0001075373617209981
0.00013982477264533634
0.00017073500464277107
0.00019736330883319455
0.0002171927651457439
0.00022846485955566322
0.00023041233243748763
0.00022331479578413828
0.0002083791257061898
0.00018748397114256554
0.00016285150390114823
0.00013671551907661476
0.00011104452656882271
8.73570645422095e-05
6.664135217444595e-05
4.936916044515709e-05
3.557874396139674e-05
2.4995386554956962e-05
1.7159689188719982e-05
1.154075037582895e-05
7.6208949094047905e-06
4.9479181660730275e-06
3.1580489850955887e-06
1.9770965861723723e-06
1.2085477581366709e-06
7.16391636068043e-07
4.0817060393235405e-07
2.2118349318489683e-07
1.1264034568545586e-07
5.324585491637172e-08
2.3170960581712833e-08
9.42514606934755e-09
3.960575462678768e-09
2.1763763599207394e-09
1.7176829299544751e-09
1.5588607843484222e-09
1.3654977315211826e-09
1.1005871281273568e-09
8.155474904059634e-10
5.608715741243973e-10
3.6162292493365023e-10
2.2054159526896152e-10
1.2819872947412567e-10
7.150396910492677e-11
3.849620561494034e-11
2.0114158266090198e-11
1.0250192794282662e-11
5.117352649387812e-12
2.512659152624247e-12
1.217322605161686e-12
5.833943196959126e-13
2.770720271640371e-13
1.3055572604325313e-13
6.106820291288194e-14
2.8358606935497586e-14
1.3070548892492922e-14
5.976551113174386e-15
2.7095081472957857e-15
1.2166573190869075e-15
5.403306396160814e-16
2.3733927155216445e-16
1.0370603215738695e-16
4.5576941003806435e-17
2.005576214575083e-17
8.399085225566163e-18
3.1174863993627974e-18
1.1639599752531193e-18
7.682109328231896e-19
1.4544783239099949e-18
5.832644427760901e-19
8.74847637530338e-20
1.9147209012608704e-19
1.0618828165806855e-18
2.9772868455574076e-18
6.971344846885254e-18
1.6228562849706893e-17
3.825706753345791e-17
8.766084572534987e-17
1.894033226611448e-16
3.8072666823738964e-16
7.041148409490843e-16
1.1762257054575101e-15
1.7200825290622644e-15
2.091325162188067e-15
1.992961138124306e-15
2.026041556457825e-15
7.160262801673961e-15
3.6447994358540664e-14
1.4626245306462571e-13
4.801034406116656e-13
1.3675157934369649e-12
3.5126493228643554e-12
8.353104517595293e-12
1.8764886368350507e-11
4.050608549538404e-11
8.524437677157805e-11
1.7686878051734975e-10
3.6425515899624547e-10
7.459662162676767e-10
1.5157289941121702e-09
3.042081031613238e-09
6.0012706746269756e-09
1.1588915331234002e-08
2.1841904351292694e-08
4.01052349832502e-08
7.167499572360662e-08
1.246330425723975e-07
2.1085411395844174e-07
3.471040045736557e-07
5.560484084676465e-07
8.668459672755516e-07
1.3148005103793128e-06
1.939311880348556e-06
2.77915853136529e-06
3.864121173490525e-06
5.2023654595200805e-06
6.764130527170255e-06
8.464276408299724e-06
1.0148903832259875e-05
1.1593759495997693e-05
1.2523094373729177e-05
1.2655521842140253e-05
1.1777344229456631e-05
9.834397217729152e-06
7.023202143137842e-06
3.854984976939619e-06
1.1657186338444862e-06
5.371113081822099e-08
1.7422308264385933e-06
7.384025673779633e-06
1.7841575682838518e-05
3.348635398041024e-05
5.4059564264740413e-05
7.862621238114087e-05
0.00010563691989651591
0.00013309174251684177
0.00015878147961253533
0.00018056783820666545
0.00019665666943885398
0.00020581963393596095
0.0002075291293207998
0.0002019875862665576
0.0001900520890741588
0.00017307433806169922
0.0001526898844962452
0.00013059633058956182
0.00010835709938790755
8.725716648575026e-05
6.822320974880273e-05
5.1806818055764146e-05
3.821879564137505e-05
2.739681923449024e-05
1.9087791120718698e-05
1.2929052287545835e-05
8.517506462873044e-06
5.461037763848052e-06
3.4111904489174067e-06
2.0792905966704176e-06
1.2399038371400912e-06
7.259650284122146e-07
4.194779662826458e-07
2.4078054745012166e-07
1.383461294703714e-07
8.017499072629576e-08
4.7136683091018166e-08
2.8179920849678816e-08
1.709884784440838e-08
1.04739920342292e-08
6.431050036662211e-09
3.929993748715913e-09
2.37625913130641e-09
1.415837258678932e-09
8.294817412013587e-10
4.777036205493182e-10
2.708939740781598e-10
1.518365532196438e-10
8.463380506035194e-11
4.7311765306445854e-11
2.679528867909919e-11
1.5531196246819185e-11
9.281004266764257e-12
5.728911081814689e-12
3.6373462947058457e-12
2.354376945546503e-12
1.537155146367841e-12
1.0022619237324924e-12
6.474904131257882e-13
4.122463888214522e-13
2.580139361541128e-13
1.5884210228340614e-13
9.66389535870408e-14
5.868483705718792e-14
3.614535692896799e-14
2.30466344369704e-14
1.549593631334485e-14
1.1068390370405285e-14
8.330766453777451e-15
6.485831836815516e-15
5.120202254395002e-15
4.03596618157096e-15
3.145613192223485e-15
2.41147514343186e-15
1.814183509581591e-15
1.3385126854771013e-15
9.686162201974995e-16
6.876331308741717e-16
4.788147599251171e-16
3.267639445937961e-16
2.182420395286992e-16
1.4245695123275844e-16
9.09458792300403e-17
5.722196013720416e-17
3.633909377471542e-17
2.448753395296323e-17
1.8686001016925755e-17
1.6592893774331723e-17
1.6423111663031107e-17
1.6930930942679168e-17
1.7406944555170356e-17
1.7641163474093866e-17
1.7824493708322692e-17
1.839131613963942e-17
1.9836589524687817e-17
2.2559951128138718e-17
2.6787543608821627e-17
3.259704448846615e-17
4.0028270750482056e-17
4.921428467154275e-17
6.043490426880788e-17
7.39959061792315e-17
8.988917693581937e-17
1.0729831521649895e-16
1.24172548285154e-16
1.3727371009937955e-16
1.4326793651799174e-16
1.4155040243264805e-16
1.3955499012367222e-16
1.6137657271754834e-16
2.607797308137579e-16
5.403187057692366e-16
1.1795669953062314e-15
2.47735361403054e-15
4.91490793248067e-15
9.24752037844842e-15
1.6629122351737718e-14
2.876315669712483e-14
4.8049307933123155e-14
7.765394865431896e-14
1.2136872224391615e-13
1.8303682280723308e-13
2.652308881993336e-13
3.66797342937282e-13
4.789472996553804e-13
5.800614227832935e-13
6.310056728198239e-13
5.772192164925178e-13
3.748778016343724e-13
8.387341777085397e-14
1.2567480287114015e-13
1.9185532622905763e-12
9.328657819438806e-12
3.18027363521303e-11
9.08222055674418e-11
2.3265931101331445e-10
5.526324763278121e-10
1.2395318599636592e-09
2.654001839828114e-09
5.461633493238663e-09
1.0850035390322524e-08
2.086787543082018e-08
3.892975171605658e-08
7.052826067065752e-08
1.241754972117475e-07
2.125498850414363e-07
3.5373996616495763e-07
5.723479796760778e-07
9.000469293180422e-07
1.374998634361956e-06
2.0393870147631284e-06
2.9342809079916718e-06
4.0912191597118825e-06
5.520418018582601e-06
7.196416243654288e-06
9.043292271922543e-06
1.0923161472468038e-05
1.2633146124778584e-05
1.3916854988885494e-05
1.4495915622219772e-05
1.4124593928488119e-05
1.2665634686412442e-05
1.0178433846072824e-05
7.0027228239567485e-06
3.814334708818346e-06
1.6272271349199869e-06
1.7204751407325045e-06
5.481757978661181e-06
1.4178749484990045e-05
2.86925331524094e-05
4.926604029877292e-05
7.532839936259328e-05
0.00010544803359277433
0.00013744301994571655
0.00016864187310802555
0.0001962511782420353
0.00021775925419481452
0.0002312955636506402
0.00023587657895840895
0.00023149651303816814
0.00021905715763848987
0.0002001648621013321
0.00017684608089114375
0.0001512416656931344
0.00012533454128103267
0.00010074950920826015
7.864328772215403e-05
5.968297543208133e-05
4.409592825745568e-05
3.176558178128065e-05
2.2346142334345782e-05
1.537297649920009e-05
1.0352806153250627e-05
6.826139452584146e-06
4.401753364454785e-06
2.7681961176600985e-06
1.6897306531577108e-06
9.941762257186196e-07
5.585126004712249e-07
2.9584998658662775e-07
1.4526015823752787e-07
6.449877974549513e-08
2.494212479311634e-08
7.952528363219449e-09
2.0975764540234688e-09
9.259882363321736e-10
1.2007372930537964e-09
1.5699258409283786e-09
1.6511670718019933e-09
1.4689860427336171e-09
1.1567017836556993e-09
8.296975313854865e-10
5.524416815025248e-10
3.4597641188591256e-10
2.0583923653119955e-10
1.1728644487663485e-10
6.445242891138748e-11
3.4373989229125355e-11
1.7894249783162002e-11
9.140032105237854e-12
4.601519388504053e-12
2.2918113591708792e-12
1.1322924411563738e-12
5.558655543088114e-13
2.7134674449057897e-13
1.3170347270484256e-13
6.352272243408641e-14
3.04185068106249e-14
1.444791036224965e-14
6.8002400926011736e-15
3.169078572115375e-15
1.4616347127218697e-15
6.676561309586062e-16
3.0276598735266284e-16
1.3652256371624807e-16
6.086865234159821e-17
2.646711677562025e-17
1.1278345763798658e-17
5.083487804874021e-18
2.668776895594899e-18
3.674585788462481e-18
1.2501635870600165e-18
2.5839907705589443e-19
3.272749775661791e-19
9.834562267298428e-19
1.849830451611779e-18
3.2589572776541818e-18
6.996491922832291e-18
1.68484300876441e-17
3.9204738922425314e-17
8.451462093596449e-17
1.6884383246155752e-16
3.106539929924592e-16
5.138750357287614e-16
7.294302136723383e-16
8.066735395616991e-16
5.24059148585529e-16
1.7202393228874235e-17
1.4585178143546156e-15
1.3886048822462694e-14
6.481284799989199e-14
2.2479484110046102e-13
6.548495610284262e-13
1.6935441806346492e-12
4.018425061749224e-12
8.966452402127714e-12
1.922651515178415e-11
4.0407843804880135e-11
8.457137880269013e-11
1.77864935950539e-10
3.7615153941050666e-10
7.952370605688302e-10
1.6663144341557507e-09
3.4328844512764584e-09
6.9128523656775315e-09
1.3558291632211106e-08
2.5853736673076553e-08
4.789784016251445e-08
8.62059241136958e-08
1.5074239956393977e-07
2.561297940489465e-07
4.2287201930570387e-07
6.782632627474099e-07
1.0564310515539793e-06
1.5967095301150512e-06
2.339334514286121e-06
3.31744949381249e-06
4.544844528609329e-06
5.999971752243893e-06
7.608717223150672e-06
9.230934720597569e-06
1.0658099992037403e-05
1.1630342651666712e-05
1.1879140040021147e-05
1.119628946772719e-05
9.520976519268678e-06
7.027149075345958e-06
4.186590078270277e-06
1.782583837973062e-06
8.566499501831262e-07
2.5853190155901047e-06
8.101402332729528e-06
1.828940901878319e-05
3.359322609259052e-05
5.387386377325807e-05
7.834673890915925e-05
0.00010561428211151932
0.0001337937436478786
0.00016072452903762474
0.00018422610506232384
0.00020236811516092688
0.00021371056876482897
0.00021747538132471932
0.00021362163449124995
0.00020281424105717032
0.00018629566022190414
0.00016568809438188386
0.000142764747234263
0.00011923071398531288
9.6547147002708e-05
7.581922182730911e-05
5.7753187676751257e-05
4.267438289478479e-05
3.058922760650536e-05
2.1270812153445147e-05
1.4349131989665773e-05
9.3916446773192e-06
5.965738327806798e-06
3.6802940005810925e-06
2.20778157971138e-06
1.2908676011853159e-06
7.384513288592307e-07
4.157900372989651e-07
2.3242583850059635e-07
1.304320868855685e-07
7.43767847581724e-08
4.35278778773221e-08
2.625289934342438e-08
1.6263422702444397e-08
1.0253611877915162e-08
6.504802656340789e-09
4.109774331015509e-09
2.5665299186940765e-09
1.5770505196518414e-09
9.517130214895695e-10
5.642795071270831e-10
3.294718342549658e-10
1.9021726843495834e-10
1.0920945821892067e-10
6.278925766067212e-11
3.642734477089912e-11
2.1475271169675572e-11
1.2928983343492844e-11
7.961467784848455e-12
5.003740374773304e-12
3.193327518992173e-12
2.0556382625732868e-12
1.3258414861707042e-12
8.519732543417719e-13
5.433220542194727e-13
3.432817585580429e-13
2.1508585677941978e-13
1.3418025242698193e-13
8.396846639999795e-14
5.326925787941258e-14
3.466847287967587e-14
2.3373513457206793e-14
1.6385169708326025e-14
1.1894904441250877e-14
8.854315673488845e-15
6.678281768564534e-15
5.0495539864297105e-15
3.796978154150195e-15
2.8242448213955342e-15
2.071180785880212e-15
1.4945511085050847e-15
1.0596141747442907e-15
7.369937781522928e-16
5.017836887174482e-16
3.333229819333854e-16
2.1497866382061507e-16
1.3374615289998283e-16
7.969125529507768e-17
4.5326559718824993e-17
2.5015763075156557e-17
1.4473623268914713e-17
1.0397068320004969e-17
1.0232017964857835e-17
1.2053525664198115e-17
1.451677036354922e-17
1.6827287039725813e-17
1.8684224278845963e-17
2.017061466923388e-17
2.1594598482191054e-17
2.331535678942508e-17
2.560545025333369e-17
2.8598183755238066e-17
3.234203600553154e-17
3.694037693033849e-17
4.27080975406054e-17
5.024692996056268e-17
6.034777145757274e-17
7.36849049742729e-17
9.037509489748739e-17
1.0961863612241775e-16
1.2978659452087957e-16
1.4942590952169208e-16
1.6968822927287557e-16
1.9865565297638053e-16
2.5801803833923683e-16
3.9273035448343377e-16
6.84903240101657e-16
1.274507189403743e-15
2.391562365810831e-15
4.406930215838621e-15
7.910385898158244e-15
1.3822949180603309e-14
2.354178903885007e-14
3.9095555010932815e-14
6.325045326713748e-14
9.944860430346498e-14
1.5138021815829006e-13
2.2190098596965168e-13
3.109445344858659e-13
4.121537362569284e-13
5.084343188259651e-13
5.681627574231842e-13
5.478083185512158e-13
4.163635409766309e-13
2.385614884020844e-13
3.9977242851263046e-13
2.1488797670748778e-12
8.817903893479393e-12
2.8420109370662048e-11
7.894875592239972e-11
1.9877725053036671e-10
4.663574111457661e-10
1.0362605703866724e-09
2.2028698336736726e-09
4.508972875734865e-09
8.924020607108649e-09
1.7125004646218013e-08
3.191945567861256e-08
5.785058236640511e-08
1.0201209349224902e-07
1.7506540249434335e-07
2.923843639991855e-07
4.7514451298256125e-07
7.510251721865015e-07
1.1540197863204748e-06
1.722692375559054e-06
2.4961452738698087e-06
3.5070716715812595e-06
4.7716644568313715e-06
6.276929086030909e-06
7.96712169252977e-06
9.732493003363137e-06
1.140496757197628e-05
1.2766324920010637e-05
1.3574217848527716e-05
1.3609303482351889e-05
1.2742471775904675e-05
1.1014815596569085e-05
8.715646176889786e-06
6.437513296572139e-06
5.0844828952892224e-06
5.813392632463921e-06
9.898795478267786e-06
1.8529914138263917e-05
3.256851587647253e-05
5.231429378787143e-05
7.733264644845864e-05
0.0001063940292121202
0.0001375536506498876
0.00016836949587670463
0.0001962237606956736
0.0002186873778510235
0.00023385692952106657
0.0002406006287612241
0.0002386723973169328
0.00022868328447364877
0.00021194896556907665
0.00019025364380017488
0.00016558051226437664
0.00013985693174059884
0.00011475144328915376
9.154385804878684e-05
7.107314043725749e-05
5.375390256896371e-05
3.964304595988248e-05
2.853411943004368e-05
2.0057904222990098e-05
1.377235947449321e-05
9.231656642332736e-06
6.0308148886939645e-06
3.827950799829841e-06
2.349516627718848e-06
1.3849828955915214e-06
7.766969104219575e-07
4.0892946847564465e-07
1.98230703206399e-07
8.573301757057796e-08
3.119738974811097e-08
8.332302479785513e-09
9.953061944452572e-10
7.728363302136865e-11
1.0132307329918694e-09
1.9100895622503234e-09
2.255264238289364e-09
2.1185139364433688e-09
1.7243305709170997e-09
1.2668665111739336e-09
8.600248771036331e-10
5.477223490368682e-10
3.3087695628579206e-10
1.9127301492783014e-10
1.0661858610943566e-10
5.7707934574546616e-11
3.052847076636696e-11
1.588100948778086e-11
8.167343724026664e-12
4.170439583747778e-12
2.120611174523429e-12
1.0753611267371195e-12
5.438824226062462e-13
2.7409953714931036e-13
1.3743581680554771e-13
6.844393409447119e-14
3.3800316644036656e-14
1.653093915958967e-14
8.00000832782232e-15
3.829769057391713e-15
1.8143634647136604e-15
8.513761001777233e-16
3.957705880465132e-16
1.8197466568130482e-16
8.271973988771615e-17
3.7541411732989673e-17
1.740770300176506e-17
8.254774305529362e-18
1.136056968363351e-17
4.6891317182555664e-18
2.07767974577445e-18
1.476934807242101e-18
1.4161435013362438e-18
1.1641634581388923e-18
1.0918875054407312e-18
2.5924170486412304e-18
7.53795841003207e-18
1.8245360882421206e-17
3.893790725210602e-17
7.772952876894576e-17
1.4572422316142132e-16
2.492428042960278e-16
3.729747723186208e-16
4.601909290874549e-16
4.3327635014971533e-16
4.159403635251389e-16
1.598999802045281e-15
8.724390458043787e-15
3.59843022521634e-14
1.191375789427891e-13
3.376617614828761e-13
8.524054342598131e-13
1.970598460456594e-12
4.27450474261524e-12
8.923694314644074e-12
1.8423022207178033e-11
3.853398448305409e-11
8.27326708527726e-11
1.8187169578430137e-10
4.0375673766721777e-10
8.906030244139646e-10
1.927354677397424e-09
4.06124422543156e-09
8.303011756393446e-09
1.6452018031383844e-08
3.159787361597656e-08
5.885334973842017e-08
1.06355895720043e-07
1.8652237608451072e-07
3.1743580473978676e-07
5.240693554865841e-07
8.38811140630265e-07
1.300473865258143e-06
1.9507417006402666e-06
2.8269825197946397e-06
3.950767272863767e-06
5.312529281661252e-06
6.854671762557038e-06
8.457864130502428e-06
9.937525281747329e-06
1.1058365992686944e-05
1.15730275976913e-05
1.1285553656224004e-05
1.0132219481761144e-05
8.263323154843158e-06
6.103286944350261e-06
4.3660734035679515e-06
4.009984963588493e-06
6.129105098631589e-06
1.179412879784932e-05
2.1868308632169973e-05
3.6830989706148326e-05
5.6640539753339185e-05
8.066178158442731e-05
0.00010767297125792772
0.0001359562459731384
0.00016346434659194258
0.00018804546141094991
0.00020769768292007093
0.0002208165049140304
0.0002263958178978897
0.00022414760331159966
0.00021451869287760644
0.00019860232048236697
0.00017796295366521897
0.00015440935796152852
0.00012975858644297673
0.00010563102102211666
8.330536250189026e-05
6.364653985804888e-05
4.710357085127615e-05
3.3762284472216074e-05
2.343151927430092e-05
1.57409749060364e-05
1.0232876640796343e-05
6.435900171034947e-06
3.916364738646915e-06
2.307080980920962e-06
1.3177280713105805e-06
7.321882622086251e-07
3.9827874485104676e-07
2.1436873815063351e-07
1.1601409978794516e-07
6.44051831593206e-08
3.735196125273614e-08
2.2811181901535322e-08
1.4570919847612241e-08
9.568842773829078e-09
6.338439131729985e-09
4.171889195467772e-09
2.702904469662631e-09
1.7158762198651561e-09
1.0661639338264756e-09
6.492760771112963e-10
3.887373468195458e-10
2.298540291305207e-10
1.3496503213572972e-10
7.918737366839188e-11
4.671779316179278e-11
2.7868356884131614e-11
1.6875402205617244e-11
1.0390217727434576e-11
6.499130303596673e-12
4.117815557938413e-12
2.631628661580128e-12
1.6886914202762637e-12
1.0836513425493977e-12
6.934149505639415e-13
4.4189928477792193e-13
2.8067632842503374e-13
1.7820705565546322e-13
1.1368522722915729e-13
7.336107088905574e-14
4.822489698218171e-14
3.24704970343401e-14
2.2438429868792396e-14
1.5879200650161986e-14
1.1443285763446385e-14
8.336471639811208e-15
6.094963306230098e-15
4.444770721275736e-15
3.21788113763961e-15
2.3047568460104687e-15
1.628759610918841e-15
1.1329904717851183e-15
7.7367487607709275e-16
5.167286540722149e-16
3.357336938828717e-16
2.1048622152268793e-16
1.2578040854864921e-16
7.032829947145016e-17
3.58122304671168e-17
1.6091333466543893e-17
6.5797143736132875e-18
3.799362772899703e-18
5.093118803925013e-18
8.465318999616929e-18
1.2503590748982033e-17
1.632945206046161e-17
1.953214009928758e-17
2.2060234289137096e-17
2.407458245997576e-17
2.5794326503830214e-17
2.7384176290574516e-17
2.8926858747002816e-17
3.049794932805435e-17
3.231792215787364e-17
3.491305975009002e-17
3.9192095493548835e-17
4.6357210574174394e-17
5.76266635533631e-17
7.384852891764533e-17
9.521003636745645e-17
1.2135836811814915e-16
1.5230420955503318e-16
1.9045108669395617e-16
2.4399769897724745e-16
3.318883779594541e-16
4.906231961583337e-16
7.83845405280029e-16
1.3169602428154122e-15
2.2612062876452263e-15
3.894293652843945e-15
6.66692554179077e-15
1.1304203292011802e-14
1.8944869750820066e-14
3.1305306413674747e-14
5.082450762253438e-14
8.069743663550262e-14
1.2463825987143294e-13
1.8614464624912933e-13
2.6699995537535273e-13
3.6485592743964743e-13
4.702322950280396e-13
5.647114568609008e-13
6.25706494027875e-13
6.514513684417072e-13
7.378185133045894e-13
1.275869205082901e-12
3.4136541266333397e-12
1.006999994710286e-11
2.8057775004783394e-11
7.236224247201504e-11
1.744727682052771e-10
3.9809857200784506e-10
8.679000730997183e-10
1.8203715738571276e-09
3.6910078496253635e-09
7.258420763270277e-09
1.3873591845871764e-08
2.5809294750402887e-08
4.676751270490479e-08
8.25757594725886e-08
1.420785732265545e-07
2.3817860329359273e-07
3.888942089131884e-07
6.181746025581863e-07
9.560590548323244e-07
1.4376136442355854e-06
2.0999843359910085e-06
2.9769530974329914e-06
4.090675640726514e-06
5.440907136447761e-06
6.993023845139519e-06
8.667450377345929e-06
1.0334462859461135e-05
1.1819321010881022e-05
1.2922690593770091e-05
1.3459725971458348e-05
1.3317569625955874e-05
1.2525477454675268e-05
1.132516048143219e-05
1.0222980984340919e-05
1.00027170751913e-05
1.1680051960387344e-05
1.6389099268183685e-05
2.5206535906658828e-05
3.89372170794917e-05
5.790137079730406e-05
8.177184257399652e-05
0.00010950606608683755
0.0001394005844615379
0.00016926951016800446
0.00019671937914468568
0.00021946983225824523
0.00023565917297620328
0.00024407874863353174
0.00024429806782006065
0.00023666765011322996
0.000222211540523197
0.00020244017446312759
0.00017912367330902176
0.0001540656193829179
0.00012891008051647108
0.00010500325013151343
8.331852508028461e-05
6.444245980733818e-05
4.8610329239485695e-05
3.577483713557606e-05
2.569004606969396e-05
1.7994507765780615e-05
1.2281908685154557e-05
8.153000471367746e-06
5.24777545873202e-06
3.2606904148759898e-06
1.943718635165237e-06
1.1022241743968113e-06
5.876628617998087e-07
2.896491752424234e-07
1.2859467356796955e-07
4.924836350181845e-08
1.5085041739485044e-08
3.4388514981320575e-09
1.3618795284281435e-09
2.252716872790346e-09
3.290989485682469e-09
3.6474130095516e-09
3.3609829374918746e-09
2.7239025711696997e-09
2.0051238379068082e-09
1.3677090946376012e-09
8.763459319790743e-10
5.329076799582703e-10
3.1019375344226254e-10
1.7417395736020705e-10
9.504964327977441e-11
5.078681247584073e-11
2.6761499800211218e-11
1.3998132018420074e-11
7.306414923881257e-12
3.818178218028103e-12
1.999925759546365e-12
1.0490551163166045e-12
5.498285888584591e-13
2.8710846069738053e-13
1.489404418506719e-13
7.6574507239346e-14
3.8949643351863665e-14
1.9580421970150822e-14
9.725028007368813e-15
4.773278008220745e-15
2.3165861125960355e-15
1.1122807921800757e-15
5.286342593502136e-16
2.49172225874768e-16
1.170352797387317e-16
5.4990908322816774e-17
2.5574973239492702e-17
3.701116427153585e-17
1.719149656819285e-17
8.492702416743502e-18
4.7120359912554485e-18
2.53656030913832e-18
8.339865325795641e-19
3.79058509445409e-20
1.0152507234945051e-18
4.044013953092393e-18
9.175848878186117e-18
1.8192517637043017e-17
3.635163758256397e-17
7.176206907641089e-17
1.321662695482791e-16
2.2049345832052477e-16
3.330110973188761e-16
4.819400139644177e-16
8.279500054558623e-16
2.156864341834539e-15
7.205716753879842e-15
2.3720483011521705e-14
7.044163734278092e-14
1.8711370721733496e-13
4.490616880359854e-13
9.87957297759535e-13
2.0313420548078993e-12
4.015015187795315e-12
7.934983016497871e-12
1.635518141360007e-11
3.5970124738933877e-11
8.347998711749242e-11
1.9799995103076615e-10
4.656958427298501e-10
1.0664683464223182e-09
2.359191315199139e-09
5.032090563783455e-09
1.0358389825247358e-08
2.0612361379088364e-08
3.971167651798168e-08
7.41473277516288e-08
1.342250761490943e-07
2.355504076376449e-07
4.0052166218308885e-07
6.593463681016582e-07
1.0497908580816345e-06
1.6145991340168856e-06
2.395438569032032e-06
3.4225829243166827e-06
4.700568519507021e-06
6.191863096025798e-06
7.802945133693022e-06
9.379395076376671e-06
1.0717488774743045e-05
1.1598100185806108e-05
1.1843768190449059e-05
1.1392126716373338e-05
1.0370665285760327e-05
9.152175420704331e-06
8.370222230492974e-06
8.880760281775593e-06
1.1668080684223184e-05
1.7706801038206187e-05
2.7802118616692314e-05
4.243503876463335e-05
6.163753943147515e-05
8.49168727196125e-05
0.00011124140415193124
0.00013909427406094894
0.0001665953171647088
0.00019168434020204215
0.00021234887573330316
0.00022686805554569933
0.00023403497339177264
0.00023331750927491963
0.00022492521368766997
0.00020976711312696122
0.00018930793712480147
0.00016535168574958385
0.0001397953383319545
0.000114398212670524
9.060419270941646e-05
6.943826236388673e-05
5.148071996468983e-05
3.690704487824179e-05
2.557185321724411e-05
1.7112621902847228e-05
1.1051800096705372e-05
6.882336562185307e-06
4.1290943596581475e-06
2.3851653478526765e-06
1.3266411029554588e-06
7.116818871342063e-07
3.700938455990436e-07
1.8872016539141014e-07
9.64514042365528e-08
5.1101491557944947e-08
2.910883158291521e-08
1.813884587299147e-08
1.217450258267428e-08
8.496760979963735e-09
5.96685358820457e-09
4.1291440211986014e-09
2.7874946395249107e-09
1.8298831370481045e-09
1.168982259959579e-09
7.288685800764211e-10
4.4546199533206295e-10
2.682501025205408e-10
1.6007876353844792e-10
9.523398926702592e-11
5.680986215862861e-11
3.415121143215689e-11
2.076521511124659e-11
1.279519885492256e-11
7.990039205664132e-12
5.0481280217559486e-12
3.2179759226884673e-12
2.0629563977584442e-12
1.3259192176629155e-12
8.524250750315701e-13
5.475381166783167e-13
3.5150704275296064e-13
2.2596208351782846e-13
1.4593180859747251e-13
9.508313245616682e-14
6.276837726948365e-14
4.211632732000465e-14
2.8757271516682954e-14
1.995714707928265e-14