# vtk DataFile Version 4.1 
COMMENT
ASCII
DATASET STRUCTURED_POINTS 
DIMENSIONS 300 300 1 
ORIGIN 0 0 0
SPACING 0.020943951023931952 0.020943951023931952 0 
POINT_DATA 90000
SCALARS U double 1
LOOKUP_TABLE default
3.431333837112534e-19
8.404882478440397e-19
2.0230369384229287e-18
4.812133363638152e-18
1.1373824640787003e-17
2.6783782975763723e-17
6.28630134085699e-17
1.469785181300425e-16
3.421537250968341e-16
7.927439150413884e-16
1.827453170629089e-15
4.189951672623731e-15
9.550980424665498e-15
2.1635487369780327e-14
4.867945481496973e-14
1.087283323507211e-13
2.4093116734195587e-13
5.29309849537849e-13
1.1520910184123829e-12
2.482550502458219e-12
5.291790031997019e-12
1.1149257792958819e-11
2.3198702247351323e-11
4.763039990099e-11
9.641212888154912e-11
1.9223315859776643e-10
3.772217045122188e-10
7.278825637294128e-10
1.3799076307022476e-09
2.5679983260248484e-09
4.687402551367539e-09
8.385029651495361e-09
1.4687891931299564e-08
2.5173905290730897e-08
4.2183087792943646e-08
6.905428632737718e-08
1.1035292831161721e-07
1.7203012416501807e-07
2.614272055960902e-07
3.870210308077076e-07
5.578062242550468e-07
7.822438908883519e-07
1.0667809605514424e-06
1.4140582081373211e-06
1.8210601831264376e-06
2.277581910804293e-06
2.7654498556323736e-06
3.2588958985539324e-06
3.7263211848921967e-06
4.133415179615227e-06
4.4472678598054285e-06
4.640814412520841e-06
4.69677539321283e-06
4.610273209778043e-06
4.3895411093228e-06
4.054550959852729e-06
3.633865730843642e-06
3.1604303403303177e-06
2.6672198192058236e-06
2.1835989488534803e-06
1.732942627086691e-06
1.3316436102225879e-06
9.892586319248176e-07
7.093472090954824e-07
4.905782223748236e-07
3.2785102132606185e-07
2.1337376784996783e-07
1.3774998146781482e-07
9.110623898136663e-08
6.419440063125596e-08
4.9308614115836875e-08
4.084263996755684e-08
3.539203639194006e-08
3.143641950290916e-08
2.875269165519054e-08
2.7760052663300594e-08
2.8970698457922662e-08
3.2642391070341386e-08
3.864255084869297e-08
4.647252328743842e-08
5.537867477017679e-08
6.448725338815578e-08
7.292541528055567e-08
7.991510332542539e-08
8.484066557132138e-08
8.729460112156327e-08
8.710313876182943e-08
8.432996563656455e-08
7.925583272438978e-08
7.233459030364429e-08
6.41308940783564e-08
5.524904516044929e-08
4.626435544840674e-08
3.766740195452187e-08
2.982806795092209e-08
2.298162594468006e-08
1.7234706359403704e-08
1.2585881914004705e-08
8.954254096702916e-09
6.20974352537962e-09
4.200252588089704e-09
2.7728357047190364e-09
1.7879043954282713e-09
1.1269381292174737e-09
6.950247902306495e-10
4.1985836594592347e-10
2.48724096380707e-10
1.446803347928089e-10
8.275497800740267e-11
4.661599954375973e-11
2.590192427089701e-11
1.42202218556807e-11
7.726461197204782e-12
4.161566038010664e-12
2.2253383653479305e-12
1.1830588578200794e-12
6.261010355148598e-13
3.302465392156964e-13
1.7383279366335493e-13
9.144170560409109e-14
4.815349872605081e-14
2.543816703484881e-14
1.3511908064729927e-14
7.232005400802454e-15
3.9063855591902634e-15
2.130669878851557e-15
1.173515897318021e-15
6.533996107333539e-16
3.697800353161978e-16
2.1566028611791506e-16
1.3273123717457916e-16
8.852019013327358e-17
6.47215363182855e-17
5.1107215073236505e-17
4.219252709291572e-17
3.5284048491123506e-17
2.926721457169402e-17
2.3837329694140686e-17
1.9027610498276617e-17
1.4946044425397052e-17
1.1654802955598475e-17
9.137958950326526e-18
7.315006253416552e-18
6.070536957262807e-18
5.2826862037022086e-18
4.842720517526952e-18
4.664545364629338e-18
4.686153478769959e-18
4.8659987984403255e-18
5.176981749899012e-18
5.5999906589067875e-18
6.118254752204184e-18
6.713331264024934e-18
7.36339517414349e-18
8.04455373751787e-18
8.736027061140749e-18
9.429969511092289e-18
1.014605019485186e-17
1.0949146093275257e-17
1.1965214140156339e-17
1.3385722085558356e-17
1.5446175422851295e-17
1.8362165427261398e-17
2.221166815082091e-17
2.6771007366759673e-17
3.134978394199005e-17
3.473058199845634e-17
3.54004514042502e-17
3.235254071573987e-17
2.681574272697066e-17
2.5301998311976943e-17
4.429527508627044e-17
1.1668369652058166e-16
2.9959950191719767e-16
6.826496119742238e-16
1.3946283747558975e-15
2.6058606090498206e-15
4.522662861157354e-15
7.370581760178337e-15
1.1364801572058323e-14
1.6670187286828043e-14
2.336040948514737e-14
3.139550153286557e-14
4.0649351536180786e-14
5.103245325615238e-14
6.277413484797278e-14
7.697265748070059e-14
9.666517986413344e-14
1.2914067203509055e-13
1.916536509593227e-13
3.2675540004161185e-13
6.442537401794535e-13
1.4340799761174167e-12
3.460237269576079e-12
8.699076716550726e-12
2.212794869962659e-11
5.591150918958455e-11
1.388809681751178e-10
3.373218935221066e-10
7.991472718228321e-10
1.844850939788499e-09
4.148889961059223e-09
9.089725903228735e-09
1.9402773275654318e-08
4.0355900188893015e-08
8.178812163636935e-08
1.6150808283633248e-07
3.107239969853428e-07
5.823286083498492e-07
1.062911217254573e-06
1.8891891381020868e-06
3.2689818729677278e-06
5.50572783904917e-06
9.023763777977926e-06
1.4389211262387166e-05
2.231867743023746e-05
3.366576788122804e-05
4.937465941606099e-05
7.039188629737905e-05
9.753305225508768e-05
0.00013131066991979928
0.00017174179029691485
0.00021816703410024594
0.0002691222713039317
0.00032230623801529786
0.00037467848300141353
0.00042270135802587467
0.00046271009982919907
0.0004913628727965189
0.0005060967315736983
0.0005055043162820378
0.0004895549101714311
0.00045961191193148997
0.0004182403881755613
0.00036884238450938313
0.0003151922909269967
0.00026096081970558896
0.000209310776425607
0.0001626239492707898
0.00012238422503359285
8.920749290827924e-05
6.298264143973323e-05
4.307483086379882e-05
2.854256062524752e-05
1.8330528952802416e-05
1.1415754359956288e-05
6.899874935580311e-06
4.052436796338684e-06
2.3168217194476574e-06
1.2925064997725166e-06
7.059333627720359e-07
3.7906603651437636e-07
2.011346427817206e-07
1.060480318377112e-07
5.586116943407983e-08
2.95238043725351e-08
1.569186633618614e-08
8.385408563750373e-09
4.494218736685458e-09
2.4064872701073892e-09
1.2819402700400953e-09
6.76807115922482e-10
3.53114574183514e-10
1.8168460493745607e-10
9.203467485214723e-11
4.582322939889644e-11
2.2387175478566924e-11
1.0725696363107208e-11
5.051637031611708e-12
2.356088637917176e-12
1.0998074549737838e-12
5.17010892798443e-13
2.425930933196685e-13
1.1059292627314733e-13
4.729796675650865e-14
1.8545781187827592e-14
6.846330395356021e-15
2.7263167556016594e-15
1.3878147896117494e-15
8.315456429878821e-16
4.687416269159175e-16
2.1645702427295504e-16
7.434532202918291e-17
1.5759834331198503e-17
8.576662324708199e-19
5.698063422020833e-19
1.9046377627502093e-18
1.9463351965029597e-18
1.2589315703126045e-18
6.030222574405089e-19
2.240670730627766e-19
6.696515487695978e-20
1.9423582524687703e-20
7.82989767180751e-21
6.729522502440186e-21
1.346670028332119e-20
2.432209514499671e-20
3.626014494901951e-20
6.220791360544711e-20
1.3936947703301994e-19
8.363509416805833e-20
2.1551755088776085e-19
5.332964432888921e-19
1.2986077603282379e-18
3.1488329196153875e-18
7.630730866330044e-18
1.8456802365390256e-17
4.448086684328492e-17
1.0673121253775984e-16
2.5491627743078933e-16
6.058940738243866e-16
1.4327188793954183e-15
3.3692116495208367e-15
7.876022803511308e-15
1.8292729790599215e-14
4.2188916156652334e-14
9.655967530918587e-14
2.1916665423734053e-13
4.929626292530079e-13
1.0979241030754298e-12
2.4192957140468394e-12
5.269732498353484e-12
1.1336650138551988e-11
2.4064878034346885e-11
5.0360208048983644e-11
1.0380001411655065e-10
2.105308752802353e-10
4.1980561057196516e-10
8.222515396584628e-10
1.580520993832106e-09
2.978897736935897e-09
5.500434379033554e-09
9.941605108645623e-09
1.7574059919312503e-08
3.035903607408203e-08
5.1210065697380686e-08
8.428174507675102e-08
1.3523579414273808e-07
2.11402753898025e-07
3.2172547461899596e-07
4.7635152976342083e-07
6.857523853405917e-07
9.593035779326079e-07
1.303370241166167e-06
1.7190973880913464e-06
2.2002734970590067e-06
2.7317678652061403e-06
3.2890772709934438e-06
3.8394086917003e-06
4.344460943565555e-06
4.764689481501095e-06
5.064436103184319e-06
5.216998852628484e-06
5.208618031821406e-06
5.040521725219426e-06
4.7285866341521605e-06
4.300719422986644e-06
3.7925859529349746e-06
3.2426473095148458e-06
2.6875041753589346e-06
2.1583142178482484e-06
1.6786443024756104e-06
1.2637158227308138e-06
9.207369201465421e-07
6.499423924253116e-07
4.460343856060609e-07
2.9983209230817216e-07
2.0000618345169212e-07
1.3476567672970043e-07
9.332014534732714e-08
6.692527714118972e-08
4.937841658123978e-08
3.695453457199071e-08
2.791025450703897e-08
2.1773557691098977e-08
1.8645719797112895e-08
1.8677487707797224e-08
2.1782097393726517e-08
2.7558517654860902e-08
3.534865380981427e-08
4.434701473024044e-08
5.370607650355732e-08
6.261393435587329e-08
7.034602450686676e-08
7.630288346788298e-08
8.004334984720321e-08
8.131422195962743e-08
8.007003889531227e-08
7.647429155918318e-08
7.087638466419168e-08
6.376492607271202e-08
5.570439241817688e-08
4.7266418536766766e-08
3.8967705304005886e-08
3.122406076900278e-08
2.4325597730591427e-08
1.843318391930582e-08
1.3592239497319967e-08
9.75768872822514e-09
6.82343082462622e-09
4.650715768431524e-09
3.091649012474712e-09
2.0060515395967937e-09
1.2715844832899109e-09
7.881646453577354e-10
4.782207773734044e-10
2.8438734900123485e-10
1.659803536683509e-10
9.52198088923864e-11
5.378298819506057e-11
2.996317362927754e-11
1.6495865655134938e-11
8.991762539535166e-12
4.8621131881807135e-12
2.6127718729797126e-12
1.3976109462130982e-12
7.452385353846235e-13
3.9658790802618435e-13
2.108301251142139e-13
1.1204959068883378e-13
5.957212946027452e-14
3.1697407286490236e-14
1.6881172296699327e-14
8.99435442242247e-15
4.787622501161548e-15
2.5397819256345235e-15
1.3387832618426628e-15
7.000779231247789e-16
3.6468289891145243e-16
1.9281388256143315e-16
1.081293319602904e-16
6.857002209165983e-17
5.1023413254830755e-17
4.309906681218723e-17
3.855371487169118e-17
3.462598262092553e-17
3.042491024387014e-17
2.594941659434754e-17
2.1515303439187485e-17
1.7453777185737315e-17
1.3985466504369878e-17
1.1197622486083515e-17
9.071694194502095e-18
7.526386289872396e-18
6.456669295815249e-18
5.760708952206635e-18
5.353898888934658e-18
5.172703110368367e-18
5.171976216231031e-18
5.319016678296894e-18
5.586736799958361e-18
5.947542914774705e-18
6.369030764770865e-18
6.812423952365333e-18
7.23470857884062e-18
7.595449025393195e-18
7.869012477439658e-18
8.061978021738172e-18
8.233417270855807e-18
8.512249413757738e-18
9.101307973436143e-18
1.0253464035338618e-17
1.2203887024837086e-17
1.5048440071720223e-17
1.8576249594996357e-17
2.20991182848141e-17
2.437377500017109e-17
2.3782535576649342e-17
1.90145689527322e-17
1.0555591885619985e-17
3.3200035242970656e-18
1.0706797940005877e-17
6.018075271926121e-17
2.0012400941281984e-16
5.071377661262785e-16
1.0922161271002506e-15
2.10337714072882e-15
3.721682066730467e-15
6.1475518521813415e-15
9.575518755101328e-15
1.415870500544866e-14
1.996988264094713e-14
2.6973889221694433e-14
3.5035643258192764e-14
4.3998022693093044e-14
5.387651900635885e-14
6.524897006639674e-14
8.003019220250147e-14
1.0320160082411618e-13
1.4723398520764675e-13
2.4422852900172973e-13
4.794481351051749e-13
1.0814885883422719e-12
2.6559032467396114e-12
6.767816017937767e-12
1.7343341330303566e-11
4.3929382715588354e-11
1.0904110684973264e-10
2.642303333563099e-10
6.241994773209612e-10
1.4371051843078733e-09
3.2251147514221883e-09
7.056752823065925e-09
1.5057678061639463e-08
3.133645130313543e-08
6.360314919249752e-08
1.2589343075560164e-07
2.429699319922905e-07
4.571272862715073e-07
8.382161669245049e-07
1.4976258279324222e-06
2.6065862865355546e-06
4.418315997975272e-06
7.29212543236075e-06
1.1715579005595758e-05
1.8318415579414346e-05
2.7869629578804238e-05
4.124774709918157e-05
5.937495441071024e-05
8.310938304930914e-05
0.00011309711202377031
0.00014959596471575377
0.00019229529896309616
0.00024016672010887972
0.0002913861622514992
0.00034336448727418224
0.0003929096799877052
0.00043651980172016954
0.00047077647506130297
0.0004927809944330777
0.0005005573334816836
0.0004933448355153727
0.0004717205863938898
0.0004375243067994854
0.00039359907737274115
0.0003433987518265273
0.00029053770312967216
0.00023836465561034298
0.0001896294739073694
0.00014628496579482486
0.00010943339175615748
7.93982338646514e-05
5.588235045434821e-05
3.816662048659957e-05
2.530742083586453e-05
1.6302987060358772e-05
1.0213162293200719e-05
6.230156577353003e-06
3.7072117677923378e-06
2.15674806276863e-06
1.230282735279589e-06
6.905056011028355e-07
3.8281505474390164e-07
2.1049776859064324e-07
1.1523796330525728e-07
6.299731674578943e-08
3.4446139478325114e-08
1.8840333381090134e-08
1.0293966759943577e-08
5.605433881517632e-09
3.033701128095764e-09
1.6274840578922356e-09
8.63482971145111e-10
4.522659574942277e-10
2.335089899103856e-10
1.1870632631020383e-10
5.937374670911984e-11
2.922734830033185e-11
1.4188019297753573e-11
6.8177165550176604e-12
3.2559786097513043e-12
1.5464061693324572e-12
7.258223215558165e-13
3.323443364667465e-13
1.4652594736673536e-13
6.214098699512255e-14
2.6029570477063404e-14
1.1398398784041576e-14
5.446951964361933e-15
2.743959388118519e-15
1.3277227365030783e-15
5.635738260183511e-16
1.9452719062820585e-16
5.0875466402027403e-17
1.1066096887962691e-17
5.438526241176536e-18
5.4102581639667276e-18
4.244489446957478e-18
2.4200381617304595e-18
1.022451449344592e-18
3.095904154698397e-19
6.008360402229552e-20
8.672459921107915e-21
7.475577941685249e-21
1.1176563233191677e-20
1.3801154108698464e-20
1.2466630198317468e-20
8.036627879914554e-21
9.711024503995907e-21
2.931636468014159e-20
2.1448549259440806e-20
5.484035453214105e-20
1.3683612091632688e-19
3.3696390373520977e-19
8.357639630697605e-19
2.08892907626549e-18
5.216625400932426e-18
1.2966707547877145e-17
3.20760391607065e-17
7.898981341702767e-17
1.9363532849580195e-16
4.724038001361656e-16
1.1465716051739645e-15
2.7673133987281564e-15
6.638454442245918e-15
1.5819051750167072e-14
3.7421537742887815e-14
8.781785676593236e-14
2.042808372048142e-13
4.706456705553432e-13
1.0729977266082482e-12
2.418475623862817e-12
5.384070165737205e-12
1.1827319403699752e-11
2.56121398537454e-11
5.4621910939123384e-11
1.1461195469364085e-10
2.36385226228305e-10
4.787728361006667e-10
9.513828396934046e-10
1.85311401054983e-09
3.5349276996299537e-09
6.5979166292932345e-09
1.203934330489336e-08
2.1458322675641997e-08
3.732665949194567e-08
6.331600379731835e-08
1.0464744232928518e-07
1.6839366246064747e-07
2.636213000069656e-07
4.012231169142047e-07
5.932744039810953e-07
8.517775511467811e-07
1.1867515387163432e-06
1.6037830649531801e-06
2.101361852657859e-06
2.668523601872476e-06
3.283447465950812e-06
3.913627788672889e-06
4.518019088849878e-06
5.051153805259935e-06
5.468738453537634e-06
5.733784239976335e-06
5.822073966275749e-06
5.725815910215305e-06
5.4547031564294725e-06
5.034189783295809e-06
4.5014354951932424e-06
3.899859550155529e-06
3.273442003252146e-06
2.661786721504375e-06
2.096605637968952e-06
1.5998557518860113e-06
1.183409399337983e-06
8.499415379325163e-07
5.946627127672173e-07
4.075450548672179e-07
2.757155777818257e-07
1.857048878891963e-07
1.2526461132236046e-07
8.454048365005209e-08
5.6521193453491076e-08
3.684483560372067e-08
2.3178443728101938e-08
1.4442665685876404e-08
1.0119666853197051e-08
9.784149567058219e-09
1.2883527833386985e-08
1.870838333912827e-08
2.64601142266153e-08
3.533461652016281e-08
4.457760558186927e-08
5.350495734918842e-08
6.150459444478072e-08
6.804105424793246e-08
7.267509544757308e-08
7.509730574403338e-08
7.516426252227859e-08
7.292225863584885e-08
6.86069372182643e-08
6.261478007208432e-08
5.5450779701788354e-08
4.7662859056067916e-08
3.9776099765715965e-08
3.2238515458297595e-08
2.5386036550563787e-08
1.9429189582977317e-08
1.4459233122537784e-08
1.0468328754104203e-08
7.377075017298351e-09
5.0632001159839e-09
3.3868030611386285e-09
2.209555458646196e-09
1.4071456863978885e-09
8.756127921873816e-10
5.329699514997345e-10
3.177294159729146e-10
1.857798705528609e-10
1.0671641653384994e-10
6.033161376181884e-11
3.3636502203847214e-11
1.8533959690365092e-11
1.0115788165829884e-11
5.481418785641985e-12
2.955223932034367e-12
1.5882993788427875e-12
8.523202715847602e-13
4.571797049751392e-13
2.452717542086881e-13
1.3161873773066869e-13
7.061500481960999e-14
3.783808867014497e-14
2.021344682992537e-14
1.0735571704279743e-14
5.645367224872049e-15
2.922222696468215e-15
1.4776937140420772e-15
7.237394115408205e-16
3.4135270847701056e-16
1.5662380242540864e-16
7.440319669446042e-17
4.2753445199877854e-17
3.376897798345636e-17
3.305750451908966e-17
3.3817760055386944e-17
3.340381294316047e-17
3.129221310811499e-17
2.7887775072397563e-17
2.3856560571701014e-17
1.9795467104047646e-17
1.6109273664007375e-17
1.3003605598322808e-17
1.0530718298425115e-17
8.648440503276343e-18
7.271167759329935e-18
6.304925323470997e-18
5.666412921394792e-18
5.289612708897109e-18
5.124404614609625e-18
5.131045368438527e-18
5.273332584468785e-18
5.512371217680826e-18
5.80230911145293e-18
6.0891976174908574e-18
6.3141103087430336e-18
6.421575091111351e-18
6.373922040312874e-18
6.170945624120653e-18
5.871989783636711e-18
5.614103217460436e-18
5.615769425794353e-18
6.152298165046271e-18
7.488791839957063e-18
9.763157133531636e-18
1.2828740539040506e-17
1.609688335094639e-17
1.8464906531494672e-17
1.847202065265658e-17
1.488675082257729e-17
7.980890949249943e-18
1.765662647911447e-18
7.426178659973502e-18
4.805275766760023e-17
1.644899954628351e-16
4.216721627921645e-16
9.141837096259674e-16
1.769043878291264e-15
3.143048739901022e-15
5.211748624620423e-15
8.147773397734577e-15
1.208826824284625e-14
1.7095023423335204e-14
2.311634508293524e-14
2.996600043306044e-14
3.73406850560146e-14
4.49051524970342e-14
5.2497420685026616e-14
6.059774656306775e-14
7.152137114657763e-14
9.275696307781562e-14
1.465318166975851e-13
2.965480219455894e-13
7.196635725219907e-13
1.889939531666036e-12
5.032810551340434e-12
1.3206946879182506e-11
3.380099099754673e-11
8.412998593334752e-11
2.0363604113508003e-10
4.797686078912543e-10
1.1013821491907593e-09
2.465806261822302e-09
5.387235177267394e-09
1.1489833587643818e-08
2.3925290773237777e-08
4.8637900153395625e-08
9.651438029277567e-08
1.868967130321829e-07
3.530851321260474e-07
6.505712455903086e-07
1.16874097224748e-06
2.046560356605569e-06
3.4921662212016827e-06
5.8051980341226235e-06
9.399066271693002e-06
1.4818248268677024e-05
2.2743469191168765e-05
3.3975893151417e-05
4.9391110193460234e-05
6.985574583851362e-05
9.610470196452217e-05
0.00012858547060955297
0.00016728670190839065
0.0002115790688408644
0.0002601042502308225
0.00031074905526814176
0.0003607337015226373
0.00040682550004128625
0.00044566411684263563
0.0004741575272368318
0.000489885919604432
0.0004914410423006145
0.0004786351018821619
0.0004525361847122825
0.00041532132535976286
0.00036997523956984875
0.0003198928307953144
0.00026845932105330907
0.00021868001618006726
0.00017291415975201306
0.00013274007039455318
9.894971796851635e-05
7.164732029095702e-05
5.0412994461756965e-05
3.4490030318636684e-05
2.2960943581183566e-05
1.4889287047097754e-05
9.417136799244914e-06
5.819026568229715e-06
3.5201776072674265e-06
2.0899361306912455e-06
1.2211891938116595e-06
7.044390512459734e-07
4.0239234249616635e-07
2.2825059890335526e-07
1.288459176551812e-07
7.247325394249254e-08
4.062951854746894e-08
2.2686008633273242e-08
1.2598396159203322e-08
6.946036347479343e-09
3.795061564455795e-09
2.0512713616670414e-09
1.0952821947031397e-09
5.77073895239416e-10
2.99770687346707e-10
1.534803383107715e-10
7.747769914047653e-11
3.860828793111506e-11
1.9025231750981808e-11
9.283312696276996e-12
4.482586134497787e-12
2.13431242578468e-12
9.965726088762938e-13
4.54683824113644e-13
2.0349087175839154e-13
9.071773526259247e-14
4.118298762152662e-14
1.9234166437398155e-14
9.064075214586136e-15
4.124530094827314e-15
1.7291094121999117e-15
6.477039790354923e-16
2.200397786186711e-16
7.741846085319035e-17
3.572602648684097e-17
2.1054858217701096e-17
1.2205203227872654e-17
5.963498943309663e-18
2.2881553178470897e-18
6.314524029816892e-19
9.854826823992239e-20
2.6739437173480172e-21
1.0123054874550375e-20
2.0155702260905774e-20
1.8777841721336107e-20
9.749394528108564e-21
1.4755001921499575e-21
7.474009051780939e-22
7.316186530340951e-21
5.44835143071307e-21
1.3726097508725817e-20
3.421904653678917e-20
8.278984375296953e-20
2.1086120443145197e-19
5.495911311924734e-19
1.4213672914940929e-18
3.642305420421678e-18
9.285572691000874e-18
2.357851142067376e-17
5.962907477280001e-17
1.5014460485544256e-16
3.762777129728219e-16
9.38127358900218e-16
2.3257004564992836e-15
5.729780345714561e-15
1.4019448535075605e-14
3.404173103718083e-14
8.19642277274563e-14
1.9551633074184151e-13
4.616116840789252e-13
1.0776453882642253e-12
2.4850655948772474e-12
5.654750405937929e-12
1.2683863467751731e-11
2.801583099196273e-11
6.087318084124882e-11
1.2998195755630433e-10
2.724878083072128e-10
5.602717080939622e-10
1.1288243977540485e-09
2.2265138918688944e-09
4.2953313468621295e-09
8.097403964619635e-09
1.4903308466306315e-08
2.675603238840848e-08
4.681477564946314e-08
7.976167830531183e-08
1.3221917332131045e-07
2.130770039330213e-07
3.335740893345355e-07
5.069388229986131e-07
7.473880031038366e-07
1.0683476600285718e-06
1.4799070045834753e-06
1.9857431386776796e-06
2.580016206121369e-06
3.244953476885856e-06
3.949919908422083e-06
4.652632566868699e-06
5.302794823105063e-06
5.847866269654083e-06
6.240090961711631e-06
6.4434676220318085e-06
6.439224401155293e-06
6.228628655710495e-06
5.832559051076915e-06
5.288015590035898e-06
4.642412386781994e-06
3.946894105332513e-06
3.2499556869566955e-06
2.592373805528613e-06
2.0040186545455908e-06
1.5026666835279122e-06
1.0945899410142743e-06
7.764899249216374e-07
5.382501292405465e-07
3.6596475736738114e-07
2.4474323329081916e-07
1.608939807788613e-07
1.032574546242577e-07
6.366355481918014e-08
3.6681014808968584e-08
1.8949182393268727e-08
8.40298769435781e-09
3.6282044083671293e-09
3.459886406045084e-09
6.817110931350154e-09
1.269256919237141e-08
2.0198484621799844e-08
2.859715472526599e-08
3.728874795919576e-08
4.576666623814441e-08
5.3568900951739404e-08
6.025191588204087e-08
6.539931938784369e-08
6.866071680697063e-08
6.980412428552101e-08
6.876148366546644e-08
6.565063130692263e-08
6.076566050540972e-08
5.453735643924186e-08
4.747318365660106e-08
4.009033664625762e-08
3.2855247086857996e-08
2.6139523070933425e-08
2.019713789205508e-08
1.516247235988305e-08
1.1064852344982913e-08
7.853169105420283e-09
5.424013408311064e-09
3.6480017136878398e-09
2.3909211773085046e-09
1.5283125336416715e-09
9.536944916495385e-10
5.816128064932575e-10
3.470884701647386e-10
2.0298873187011647e-10
1.1654030429015863e-10
6.581317045041876e-11
3.66402359638895e-11
2.0160286044873784e-11
1.0992433848547172e-11
5.9559083683335476e-12
3.21526383478029e-12
1.7335029735513746e-12
9.351201028111444e-13
5.052750406724654e-13
2.735411648084834e-13
1.4828012794600892e-13
8.036275766363538e-14
4.344035447829177e-14
2.334077801002462e-14
1.240741243071399e-14
6.483069058709488e-15
3.299823970168002e-15
1.6152974683124647e-15
7.465860571627624e-16
3.1737804151336545e-16
1.201536223220617e-16
4.0842875095657743e-17
1.7461674673191334e-17
1.7231870777088112e-17
2.376174121460278e-17
2.973564188728418e-17
3.267481456251214e-17
3.246595149702436e-17
2.994835763806631e-17
2.6154507517076043e-17
2.1954463295247245e-17
1.7939493276426153e-17
1.4433264474357443e-17
1.1557207759771535e-17
9.30595963684755e-18
7.610557034295462e-18
6.381731168960496e-18
5.534095862196225e-18
4.9957413916055474e-18
4.708443255367544e-18
4.6228996655188395e-18
4.692206588064762e-18
4.865767775860278e-18
5.0852315717953524e-18
5.283799468778201e-18
5.390167986523379e-18
5.338167477524153e-18
5.082526271115323e-18
4.619796953415478e-18
4.011122976466288e-18
3.400283319795908e-18
3.01695765025886e-18
3.1527903213260163e-18
4.098792523420091e-18
6.039655991475212e-18
8.916351482976683e-18
1.2294708872789048e-17
1.5314409915895278e-17
1.683721449903378e-17
1.595934973842491e-17
1.3091170516593549e-17
1.1823149118336252e-17
2.177043532950871e-17
6.249029789432259e-17
1.6836215726970214e-16
3.9397252939413136e-16
8.190374760674854e-16
1.5512500541155003e-15
2.7247717759451283e-15
4.4916242044573515e-15
7.003322105732202e-15
1.0381103453724355e-14
1.4675296744206463e-14
1.981758205226763e-14
2.5573497749007952e-14
3.1505917305825286e-14
3.6965506940139796e-14
4.1144480554623197e-14
4.3310903476963493e-14
4.361263920974781e-14
4.563859061404913e-14
6.40637775059973e-14
1.4607689032035812e-13
4.281728074888317e-13
1.2797391840392917e-12
3.652110520161426e-12
9.899591807065595e-12
2.5656266251098557e-11
6.401661779796379e-11
1.5462063067397673e-10
3.629156030551027e-10
8.299673225873378e-10
1.8525718768597364e-09
4.0399654272072465e-09
8.61131303279533e-09
1.7942796365141205e-08
3.654049247926152e-08
7.271000144165037e-08
1.4131558638145152e-07
2.681591239231945e-07
4.966321910969013e-07
8.973455880561802e-07
1.5813294995767432e-06
2.717005947087267e-06
4.550337290090864e-06
7.426260964692985e-06
1.1807746467511129e-05
1.828675595711749e-05
2.7579506449778302e-05
4.0497432800736556e-05
5.788601847368919e-05
8.052701953355474e-05
0.0001090059760823368
0.00014355591409072603
0.0001838983504606936
0.0002291116256681374
0.0002775610720536809
0.0003269226840529167
0.0003743202310050636
0.0004165759096372117
0.00045055017899051954
0.00047352311328809727
0.0004835540179273177
0.0004797535302860107
0.0004624151563714389
0.000432979108624495
0.0003938343744592597
0.0003479968403803947
0.0002987239574175553
0.0002491345335184751
0.00020189472029412135
0.00015901139357690503
0.00012174815086299442
9.06541086173447e-05
6.567727985943141e-05
4.632550614202791e-05
3.1838618789284924e-05
2.134325709839794e-05
1.3972992145339813e-05
8.947643455999045e-06
5.614496501784658e-06
3.459442190702382e-06
2.097966825564419e-06
1.2552780329082105e-06
7.427774180251267e-07
4.3558547497806973e-07
2.535728713260904e-07
1.4668829043818152e-07
8.435255766478209e-08
4.820297705531199e-08
2.7350260730503733e-08
1.5390840769110883e-08
8.578801809489525e-09
4.7306775648943755e-09
2.578024533900288e-09
1.3872274959906744e-09
7.366438309256694e-10
3.8594445917423395e-10
1.9954615297797732e-10
1.0187774234586243e-10
5.139951895278132e-11
2.5635454410569838e-11
1.2631718418126895e-11
6.1387549658056665e-12
2.936575032031423e-12
1.3823311288058748e-12
6.425466578036718e-13
2.9719243727460975e-13
1.3789118290514512e-13
6.425348535576039e-14
2.972882491922805e-14
1.3372094850612693e-14
5.728603979513851e-15
2.3229853863960826e-15
9.138352773220181e-16
3.722547569490672e-16
1.6796862380564472e-16
8.270170518228264e-17
4.044225487581802e-17
1.789253666850118e-17
6.705576258603343e-18
2.0180942830568925e-18
4.751074247174302e-19
1.1705694902059394e-19
7.102742255145959e-20
6.157041676331174e-20
4.077898835759767e-20
1.778286293628945e-20
4.902183991238783e-21
2.4970509476550064e-21
3.327438854314936e-21
6.592033607885914e-22
3.846864564429364e-21
8.428902807754551e-21
1.8013629975817197e-20
5.012713646423821e-20
1.405605130975282e-19
3.748455022633861e-19
9.855387334015872e-19
2.5876647617675017e-18
6.776914087702935e-18
1.7685695164316888e-17
4.59793394608746e-17
1.1903267911798992e-16
3.0671122818298106e-16
7.86231270582223e-16
2.003958449083454e-15
5.075221171827745e-15
1.276179210203178e-14
3.183312362528661e-14
7.869408920761723e-14
1.9259972718118054e-13
4.661807381772846e-13
1.11470371537103e-12
2.63018781594247e-12
6.117199827396775e-12
1.4008097626190072e-11
3.154984290217455e-11
6.98149798979345e-11
1.5163053169311467e-10
3.229055006166175e-10
6.735790376510514e-10
1.3750140330030976e-09
2.7442119372063066e-09
5.3494619690899724e-09
1.0175990826723016e-08
1.8871728674004502e-08
3.408885335727847e-08
5.992138577046905e-08
1.0240768024011398e-07
1.7001652357512452e-07
2.739704998842123e-07
4.281947116820475e-07
6.48639848707869e-07
9.51751875294174e-07
1.3519796173141078e-06
1.8584387557675573e-06
2.4711588241870103e-06
3.177652418323207e-06
3.950748755963249e-06
4.748610093361729e-06
5.5175305807180125e-06
6.197528262938615e-06
6.730017601985099e-06
7.066207623163835e-06
7.174532449527141e-06
7.045528272085856e-06
6.693119263829307e-06
6.1521060677081534e-06
5.472509103710295e-06
4.712052068505091e-06
3.928322312261813e-06
3.1720009785597565e-06
2.482127547301871e-06
1.883818705984983e-06
1.3883520285627062e-06
9.95142959070672e-07
6.949205659939102e-07
4.733390621258244e-07
3.143313461192431e-07
2.0269393815010463e-07
1.25650267504941e-07
7.341136662024419e-08
3.897047164748435e-08
1.747754568195583e-08
5.526977096625593e-09
5.864828194594105e-10
6.552036516421239e-10
4.121702423842268e-09
9.732115185334921e-09
1.6577504914165436e-08
2.4046281229985604e-08
3.1733469528005675e-08
3.9331387689548576e-08
4.653696753015862e-08
5.300257972397289e-08
5.833910536417161e-08
6.216182468308854e-08
6.415788894347691e-08
6.41509598439413e-08
6.21429854049271e-08
5.832214057796941e-08
5.303631265191748e-08
4.674023577046154e-08
3.992958198859253e-08
3.3076359906276625e-08
2.6577391733421976e-08
2.072279553812109e-08
1.568596153525158e-08
1.1531943840808501e-08
8.238390430677313e-09
5.722319816004231e-09
3.866870770510512e-09
2.5439348127875574e-09
1.6306247372031575e-09
1.0192950396746564e-09
6.220237754996692e-10
3.710419265189475e-10
2.1667063714749702e-10
1.2408424640617508e-10
6.983910875692274e-11
3.8728910390793405e-11
2.1221733402417892e-11
1.1527446228104702e-11
6.228377958407368e-12
3.358714988346665e-12
1.8131649185514374e-12
9.821110283050427e-13
5.344138837259385e-13
2.9213042213803857e-13
1.6020675994858617e-13
8.791911365959108e-14
4.8105236854922063e-14
2.6117379527884528e-14
1.398400141833776e-14
7.32489726233204e-15
3.712187655053936e-15
1.790945550378399e-15
8.017380378712031e-16
3.1831998730772597e-16
1.0206802296416531e-16
2.0540793831882457e-17
1.5877719760741832e-18
7.284425353525967e-18