# vtk DataFile Version 4.1 
COMMENT
ASCII
DATASET STRUCTURED_POINTS 
DIMENSIONS 300 300 1 
ORIGIN 0 0 0
SPACING 0.020943951023931952 0.020943951023931952 0 
POINT_DATA 90000
SCALARS U double 1
LOOKUP_TABLE default
7.275584788420946e-19
3.14369313708592e-19
1.3841083565262233e-19
6.03528615895886e-20
2.410020937746195e-20
1.0544757344316163e-20
6.901559900436536e-21
3.024602240302027e-21
3.0043842935872078e-21
1.6860967446123172e-20
3.9038545029330595e-20
5.882978373104285e-20
1.154943514053038e-19
3.930812150213379e-19
1.3841573071788047e-18
4.094572544675962e-18
1.022142532414741e-17
2.2925660150744092e-17
5.0864194182700806e-17
1.2081470621817595e-16
3.0564349509074473e-16
7.757475608776734e-16
1.8961223557457016e-15
4.446698018384582e-15
1.0174783597674183e-14
2.3120041101122005e-14
5.2535898224894654e-14
1.1898737675608826e-13
2.669333518520509e-13
5.909376171429855e-13
1.290392256191564e-12
2.7821658768221873e-12
5.92717009298744e-12
1.2475502992853824e-11
2.5923818433177058e-11
5.313935376427413e-11
1.0739196966111116e-10
2.1394784981027603e-10
4.2030983542323767e-10
8.149316741162322e-10
1.5615791964833507e-09
2.9630164728977503e-09
5.580265260786302e-09
1.0457393739666755e-08
1.9544750565302083e-08
3.6487341736656257e-08
6.806354862271289e-08
1.2673449265946344e-07
2.3499642845375276e-07
4.3249052210488954e-07
7.870408233995903e-07
1.4108188665558513e-06
2.482455998464971e-06
4.2748818954605754e-06
7.186736184731595e-06
1.1772332165073963e-05
1.876165140030234e-05
2.9058519426552404e-05
4.370328142865609e-05
6.37875982475446e-05
9.031486532825675e-05
0.00012401075929372132
0.0001651034474379612
0.00021310895827023627
0.00026666932713153343
0.0003234941198134132
0.0003804458663070275
0.00043378614305648606
0.00047956530029900733
0.0005141030518045021
0.0005344793799002454
0.0005389444690618752
0.0005271673817837063
0.0005002743406462554
0.00046067102863856424
0.00041168771656555504
0.0003571196543520842
0.00030075001393198254
0.0002459366102477137
0.00019532051367352496
0.0001506824956334621
0.00011294119842276997
8.226249749466327e-05
5.823675181118386e-05
4.007968101293869e-05
2.6820651212759892e-05
1.7454933305628357e-05
1.1049850906790917e-05
6.805644997717425e-06
4.078892740825006e-06
2.3793698890979144e-06
1.3511938665115828e-06
7.47144111840058e-07
4.023715142480258e-07
2.111097500032903e-07
1.0794349179036933e-07
5.3812255728220904e-08
2.6170434589928254e-08
1.2425580676764158e-08
5.765550504486745e-09
2.6180002449926344e-09
1.1653853277521436e-09
5.097106662891181e-10
2.1967382723328002e-10
9.363110739423686e-11
3.9659766854513655e-11
1.681019147325412e-11
7.20696658551757e-12
3.1791988369154605e-12
1.4795508436995082e-12
7.475146659092e-13
4.176512572754268e-13
2.5659279330672193e-13
1.6865592293630078e-13
1.1475330643616954e-13
7.875444629682288e-14
5.3658661603555494e-14
3.6019854831173986e-14
2.3780348598564347e-14
1.5481044613316337e-14
9.998647950381165e-15
6.4632057849678045e-15
4.22296831377393e-15
2.812972599902524e-15
1.918905016905642e-15
1.3393729498650647e-15
9.515042112956236e-16
6.831312560154357e-16
4.925694643976507e-16
3.5530728462698485e-16
2.5606283454214596e-16
1.8449155368404598e-16
1.330817809301139e-16
9.619342010199665e-17
6.960281950583944e-17
5.0227529726223893e-17
3.5899204505731826e-17
2.5151938466147556e-17
1.703033010470898e-17
1.0927005190962885e-17
6.4538837917823e-18
3.3457031559469167e-18
1.3916164319538124e-18
3.9068887769247867e-19
1.2819874908665746e-19
3.703954283886113e-19
8.750635940706942e-19
1.4139308479638769e-18
1.8012429170012528e-18
1.921596374890507e-18
1.7501774111288012e-18
1.3603227019802478e-18
9.16603842993974e-19
6.556537786881629e-19
8.605791784914263e-19
1.836991971729043e-18
3.898874192059862e-18
7.370755657407492e-18
1.2609685897149515e-17
2.004706913658161e-17
3.024718910779533e-17
4.3976143238941e-17
6.227118856688205e-17
8.649498521480797e-17
1.1835091222034528e-16
1.5982473924157728e-16
2.1300727197298923e-16
2.79749165875799e-16
3.611155391717631e-16
4.56662622872188e-16
5.636725058355713e-16
6.766707024292477e-16
7.878103331438791e-16
8.889921464740551e-16
9.768029273095886e-16
1.061357576286457e-15
1.179842184599925e-15
1.4152440691866954e-15
1.9217096864949816e-15
2.963895386231724e-15
4.997300630060603e-15
8.868196186285534e-15
1.6330484116604717e-14
3.1325031671856364e-14
6.294761313858748e-14
1.3190132079075317e-13
2.8370532552154135e-13
6.142785519227021e-13
1.3169923117826443e-12
2.765021827911891e-12
5.648615482610937e-12
1.1192883392975183e-11
2.148599570230039e-11
3.9947031700210295e-11
7.195247283945007e-11
1.256149311572898e-10
2.1266214684545433e-10
3.492966906133803e-10
5.568318860174578e-10
8.618120720770417e-10
1.2952623457383748e-09
1.8907113733369683e-09
2.6807301771848687e-09
3.6919578718676344e-09
4.938940601542449e-09
6.417545510256991e-09
8.099129577874916e-09
9.926907353208506e-09
1.1815931505102226e-08
1.365768077129217e-08
1.5329442462612937e-08
1.6707608618162038e-08
1.7682921852155384e-08
1.8174920462237728e-08
1.814263471389407e-08
1.758915658755471e-08
1.6559034632194856e-08
1.512929755351118e-08
1.3396825040178382e-08
1.1466133480054006e-08
9.441758230245396e-09
7.427817748210126e-09
5.534097864451256e-09
3.884030532654182e-09
2.617153515512463e-09
1.8793936198687372e-09
1.8004672490929452e-09
2.468210665960136e-09
3.920820271219e-09
6.183269319192675e-09
9.367326733003878e-09
1.383387174426539e-08
2.03873228352901e-08
3.044734674821724e-08
4.613582246586169e-08
7.023330947264224e-08
1.0599252381593256e-07
1.5682987204526319e-07
2.2593303445845357e-07
3.1581771693219746e-07
4.2785165746728424e-07
5.617605180022391e-07
7.151545307173017e-07
8.831628568279145e-07
1.0583085035467438e-06
1.2307650766569516e-06
1.3890841374475486e-06
1.5213727330957724e-06
1.6167678659827585e-06
1.6669459941922734e-06
1.6673624249019253e-06
1.617955698661242e-06
1.5231649165112764e-06
1.3912597578749503e-06
1.2331302688972756e-06
1.0607875066357735e-06
8.858634037765563e-07
7.183659196026937e-07
5.658599745226215e-07
4.3313441783695955e-07
3.2231135905569796e-07
2.332806197807403e-07
1.6431005247747107e-07
1.126897412064775e-07
7.530262899051413e-08
4.906012025286818e-08
3.1184688573810444e-08
1.9353634825001804e-08
1.1735901188745422e-08
6.958831026422639e-09
4.037964859016627e-09
2.2947836050290494e-09
1.278279046860773e-09
6.985067669637552e-10
3.7474585544281384e-10
1.9755501575085695e-10
1.0242145581541966e-10
5.2265416370970485e-11
2.6274156769540362e-11
1.3022808159326065e-11
6.369589065897876e-12
3.0769163063689644e-12
1.4691942561346036e-12
6.939958022715166e-13
3.2455936954380584e-13
1.503921944538203e-13
6.909885981944165e-14
3.150185439068125e-14
1.4259666827481106e-14
6.412999214660943e-15
2.8671059583775463e-15
1.2749433819003529e-15
5.641815777078485e-16
2.485583107212983e-16
1.0906965781180428e-16
4.768772197832996e-17
2.0781162405351944e-17
9.029091533178087e-18
3.912696990137786e-18
1.690287528856188e-18
2.635242201625046e-18
1.1732752336720178e-18
5.229254554943906e-19
2.308332868049661e-19
1.0038556898036986e-19
4.4337785444498184e-20
1.8357039743253536e-20
4.2645352842483705e-21
2.579259744490815e-21
1.139722083303137e-20
1.6115781867209045e-20
8.47416643777615e-21
8.03829494474238e-21
8.230564640404286e-20
4.02444140140977e-19
1.2704390205740354e-18
2.9674211126628198e-18
5.699759801130226e-18
1.0996664100174494e-17
2.6741643674998342e-17
7.70370858426135e-17
2.1577137406065168e-16
5.466218872710095e-16
1.2778402802186492e-15
2.8983705397730724e-15
6.643329480805071e-15
1.5518230919665687e-14
3.6371605214254466e-14
8.41537770311183e-14
1.9110525837974092e-13
4.2688529318528674e-13
9.416553227302731e-13
2.0551044253363234e-12
4.435073772061173e-12
9.44856929262068e-12
1.9840175957407295e-11
4.10226265088712e-11
8.349643570941526e-11
1.673421815658049e-10
3.30550291586719e-10
6.446066951901902e-10
1.2441710038721391e-09
2.3847618130256624e-09
4.556710616385028e-09
8.711608454947054e-09
1.6709165478898215e-08
3.2182034129139676e-08
6.216016754333489e-08
1.2000732144516113e-07
2.3049653612669687e-07
4.381484341726812e-07
8.201739889515258e-07
1.5053182163797139e-06
2.6993290312398777e-06
4.7163792612700675e-06
8.013331615088665e-06
1.3220294380209332e-05
2.11569664304044e-05
3.2820908539864436e-05
4.9332749440480406e-05
7.182628802323893e-05
0.00010127986618325463
0.00013829930619230552
0.00018288011341062937
0.00023419328092711946
0.0002904491334424319
0.00034889163691198473
0.00040595832642761003
0.00045760969006563895
0.0004997927893413297
0.0005289672920773167
0.0005425990666027466
0.0005395252777236565
0.0005201176895966394
0.0004862124771105185
0.0004408242471800095
0.00038770583330461283
0.0003308424675567465
0.0002739734163366903
0.00022021725250353534
0.000171845595103857
0.0001302142763259256
9.58299238690103e-05
6.851018424954195e-05
4.758929502274423e-05
3.212562314057063e-05
2.1079928383378558e-05
1.3447704094112432e-05
8.342071119974223e-06
5.033048880054502e-06
2.95396255788737e-06
1.6868718920639044e-06
9.374605368071219e-07
5.071251845674527e-07
2.671023422002554e-07
1.3701469015304377e-07
6.847549124469498e-08
3.3355486279803304e-08
1.5844989220134993e-08
7.344941738857994e-09
3.3249901918588266e-09
1.4712416646484098e-09
6.369394629840224e-10
2.700829277309111e-10
1.1230747079875686e-10
4.5875163753236424e-11
1.8469652845117405e-11
7.387224876707202e-12
2.9903902991006244e-12
1.2731397777156368e-12
6.04849850331347e-13
3.3677753027605576e-13
2.1785816797268127e-13
1.5438469013923687e-13
1.130185047852684e-13
8.25290253359593e-14
5.918881635554959e-14
4.1497509809334534e-14
2.846588726482556e-14
1.9179442207832502e-14
1.2766232104297651e-14
8.452302150737435e-15
5.6048215736202586e-15
3.743353942262124e-15
2.5259654086974766e-15
1.7223173104729999e-15
1.1839047943836359e-15
8.177048314474959e-16
5.659248309807823e-16
3.9206677849846703e-16
2.722033282262021e-16
1.8994222860853952e-16
1.3368245787609425e-16
9.51288150618907e-17
6.841988555239571e-17
4.952973817412923e-17
3.5797902879418737e-17
2.5541722755574237e-17
1.7742773061900486e-17
1.1805267470232748e-17
7.380006733061454e-18
4.243025146805177e-18
2.2169506911318008e-18
1.1247295898630198e-18
7.680819414083921e-19
9.253412037661515e-19
1.3643748564691874e-18
1.8660262614937464e-18
2.2524986894649565e-18
2.4142010606458812e-18
2.3286707939800908e-18
2.0668109978244904e-18
1.7847609203791893e-18
1.7035775644550038e-18
2.0824781634911185e-18
3.1936347746803255e-18
5.306797906007742e-18
8.690354305907342e-18
1.3632338398748997e-17
2.0481177421601496e-17
2.970210580448462e-17
4.194124148194703e-17
5.80846727288292e-17
7.929363277866498e-17
1.0698835403700613e-16
1.4274326133488566e-16
1.8804819726536008e-16
2.438917771025327e-16
3.101459941990355e-16
3.847922076981549e-16
4.631441567632512e-16
5.374010908594004e-16
5.970859587951026e-16
6.311260806530596e-16
6.323877524591231e-16
6.051916479852909e-16
5.755353888053844e-16
6.025040335940253e-16
7.88540593192916e-16
1.2887431873813434e-15
2.332222291143167e-15
4.306935131807285e-15
8.052774005755632e-15
1.5708985748966414e-14
3.285976210092872e-14
7.345329264348721e-14
1.7022992439471832e-13
3.954328248614389e-13
8.996559274255001e-13
1.9810028577250238e-12
4.2022379371942e-12
8.579745981447886e-12
1.6873457868377617e-11
3.2008795590508746e-11
5.865606777796252e-11
1.0397432676042404e-10
1.784899941964172e-10
2.9702191940075184e-10
4.794852315017042e-10
7.513162249465945e-10
1.1431808567342366e-09
1.689593088547024e-09
2.4261159412528275e-09
3.3849832180538027e-09
4.589278328280195e-09
6.046215293249864e-09
7.740512874351407e-09
9.629215964438935e-09
1.1639455427410245e-08
1.3670424239027042e-08
1.5600231548761907e-08
1.7297339958286475e-08
1.8635187393550388e-08
1.9507636546368962e-08
1.984240288677748e-08
1.960983427814294e-08
1.8825422695826383e-08
1.7546042324464478e-08
1.586168132771274e-08
1.3885719080387401e-08
1.174692508568039e-08
9.584917204449426e-09
7.548034517535172e-09
5.789552865536024e-09
4.4567825905687315e-09
3.669828005193241e-09
3.4935101546419245e-09
3.915564674272878e-09
4.852242372022328e-09
6.202834942942819e-09
7.963073255529551e-09
1.0384871181454527e-08
1.4144719286681635e-08
2.0467940768286623e-08
3.116153837130583e-08
4.853514349975448e-08
7.522534979642725e-08
1.1396353894613225e-07
1.6732572344319167e-07
2.3747571611050538e-07
3.2587972066873886e-07
4.3295931169300395e-07
5.576789715397078e-07
6.971277479729689e-07
8.462214885395512e-07
9.97682800945717e-07
1.1424239380903832e-06
1.2703653434145838e-06
1.3715999372828698e-06
1.4377041792204073e-06
1.462939230962876e-06
1.4450968365037662e-06
1.385819060432673e-06
1.2903352428818436e-06
1.1666818180650075e-06
1.0245706952271617e-06
8.741278109880473e-07
7.247260643452571e-07
5.840909760338004e-07
4.577796665763182e-07
3.4904697904707605e-07
2.5903876732551465e-07
1.8720640915264666e-07
1.3182314665639363e-07
9.049707872211926e-08
6.060683896437069e-08
3.9622218930140093e-08
2.5303690724694043e-08
1.57966504100018e-08
9.647153323734217e-09
5.767809623797091e-09
3.3785565247989555e-09
1.9404233779698704e-09
1.093573809058434e-09
6.052451605724507e-10
3.292266110390866e-10
1.761531550807319e-10
9.278361718026083e-11
4.814953647855313e-11
2.4638110267671154e-11
1.2441431924198757e-11
6.2048521096429765e-12
3.0586974792116822e-12
1.4915070306123775e-12
7.199947607654402e-13
3.4432635872442035e-13
1.6325186896764786e-13
7.678740767024774e-14
3.585490402287791e-14
1.6630356306305453e-14
7.666572105880214e-15
3.5146682317238436e-15
1.6031440377970104e-15
7.279019882417153e-16
3.291376194376503e-16
1.4827311969386482e-16
6.657182167172707e-17
2.980011123678412e-17
1.330397543465342e-17
5.925277356286562e-18
9.142664450091872e-18
4.184650202901716e-18
1.91137436712766e-18
8.685127440512848e-19
3.920287308738111e-19
1.7517333473482986e-19
7.536211982619728e-20
3.2316165796348134e-20
2.1034496860933473e-20
2.0922632402523576e-20
1.533015545078154e-20
5.237433846128712e-21
3.717388117976784e-21
3.426402346517588e-20
1.6738630873477274e-19
5.094414867878474e-19
1.0226076825385039e-18
1.3857360066424213e-18
1.6703841570737475e-18
4.713449616224401e-18
1.975545701274934e-17
6.453218259080957e-17
1.6450641433872957e-16
3.622750535773148e-16
7.78396675219258e-16
1.7882189125572353e-15
4.3828617016478295e-15
1.0823973106899785e-14
2.5957882976653775e-14
6.026377496004775e-14
1.3707971719706425e-13
3.0878217546179056e-13
6.909171302883716e-13
1.5316917062226003e-12
3.351026371653598e-12
7.214935881935824e-12
1.526716280955131e-11
3.1738608616469886e-11
6.483508226698399e-11
1.302569803635292e-10
2.578501522556158e-10
5.045379022463445e-10
9.803802234914308e-10
1.90272181035473e-09
3.710487828090841e-09
7.3047661498070665e-09
1.4545461311033756e-08
2.924421737516197e-08
5.906984544925173e-08
1.1903613024131827e-07
2.3756155362225244e-07
4.664158830610544e-07
8.960620015894806e-07
1.6777287350661429e-06
3.052695203639079e-06
5.387404327840115e-06
9.209971408540988e-06
1.5239594675761899e-05
2.4396074121140552e-05
3.777355736663767e-05
5.656273970421373e-05
8.191102916636368e-05
0.00011472174882828119
0.00015541053583543598
0.00020365645929868985
0.000258201445036115
0.00031675776625004305
0.0003760742732327941
0.0004321860882278706
0.0004808335447959923
0.0005179934168872957
0.0005404312021686203
0.0005461687031502151
0.0005347725859510973
0.0005074054200655202
0.0004666316585478515
0.0004160231044259873
0.0003596475591717497
0.0003015410178252012
0.0002452556850714097
0.00019354823912885296
0.00014823500235465212
0.00011020395732669615
7.954651970563535e-05
5.5758912925277614e-05
3.796353717399384e-05
2.5111160752124523e-05
1.6139919338638866e-05
1.0082200131387192e-05
6.1222632460078305e-06
3.6145451440058667e-06
2.075210750224122e-06
1.1588320950398619e-06
6.29526463957825e-07
3.327611689536125e-07
1.7118793686968225e-07
8.573152015770569e-08
4.1806897591247945e-08
1.9856974819831466e-08
9.18856216497888e-09
4.1431907371093355e-09
1.82050339920421e-09
7.792982417376417e-10
3.2474287108614886e-10
1.315365391380912e-10
5.166425166920379e-11
1.962152939750275e-11
7.1989390986212255e-12
2.576292086000044e-12
9.409509424338428e-13
3.957014903064731e-13
2.219388021454649e-13
1.621561163444522e-13
1.3181193432674872e-13
1.0736067187196504e-13
8.458677298764547e-14
6.41008362061926e-14
4.68807901830274e-14
3.327855162234645e-14
2.3069863503775352e-14
1.5715014419889566e-14
1.0581412393128404e-14
7.0796539712176335e-15
4.725690664506757e-15
3.1543051747230927e-15
2.1063964210236637e-15
1.4060548551437651e-15
9.37020797703618e-16
6.2313940998293705e-16
4.141237786064505e-16
2.761250542845694e-16
1.858969888504668e-16
1.2730427781380703e-16
8.919960194083479e-17
6.403865656432191e-17
4.688755172076665e-17
3.4662483344003104e-17
2.5538088518035127e-17
1.8498266136859908e-17
1.3010712446045714e-17
8.804078768646233e-18
5.7246560203828145e-18
3.650867242094118e-18
2.447952408067988e-18
1.950238053247386e-18
1.962669362870882e-18
2.2759270319544344e-18
2.6903262541409005e-18
3.0433330313302062e-18
3.234873425637765e-18
3.2446472634220647e-18
3.1370550436626103e-18
3.052170208403916e-18
3.184857162337306e-18
3.7576397788165544e-18
4.995224130191082e-18
7.108993808626809e-18
1.0298228281300488e-17
1.4771675056304773e-17
2.0789105854738567e-17
2.871813143322055e-17
3.909692496061345e-17
5.268820910388929e-17
7.050330165640833e-17
9.376704303711702e-17
1.2378629937616235e-16
1.6168022584103607e-16
2.079369176949596e-16
2.6178971514175373e-16
3.2047110791392385e-16
3.7851489317938187e-16
4.274387723690175e-16
4.563241422308088e-16
4.539446178317975e-16
4.130408424724878e-16
3.368910564476018e-16
2.472703948776211e-16
1.911945612107825e-16
2.4211695802485784e-16
4.9171348859922e-16
1.0367074410766284e-15
1.9936708914522682e-15
3.647578958772706e-15
7.0010000661212206e-15
1.5314460488245147e-14
3.783185500101207e-14
9.793869887350581e-14
2.4973213368947135e-13
6.096517082188448e-13
1.4136629245830314e-12
3.1155764401776772e-12
6.548119882528794e-12
1.3174357271700408e-11
2.5460913145178555e-11
4.740278508942914e-11
8.5217528665957e-11
1.481986970816942e-10
2.496697634928289e-10
4.079088223839811e-10
6.46826419418763e-10
9.960893644805345e-10
1.490319747786944e-09
2.1669978541073904e-09
3.0627995616375743e-09
4.208330645390845e-09
5.621580424948713e-09
7.3008588964677295e-09
9.218408219904165e-09
1.1316156713026878e-08
1.350507216224632e-08
1.5669176391283322e-08
1.7674504549094768e-08
1.9382257118481705e-08
2.066434752906842e-08
2.1418807795618345e-08
2.1582364607829008e-08
2.1138081633186003e-08
2.011718314890082e-08
1.859565521049055e-08
1.6687377569868276e-08
1.4535768998728373e-08
1.2304916758143157e-08
1.0169213741124967e-08
8.298738581699196e-09
6.837638316262137e-09
5.8760508230069795e-09
5.4226997412160394e-09
5.392924703231187e-09
5.63104134673006e-09
5.981588836138084e-09
6.409036338229097e-09
7.1434921434006004e-09
8.810640309281542e-09
1.2499491351594194e-08
1.9738529653555734e-08
3.238487931343017e-08
5.246541868505971e-08
8.202224420767252e-08
1.2299535122346545e-07
1.7713019397473334e-07
2.4585322344931433e-07
3.300461989880922e-07
4.2968720061249406e-07
5.434023439058057e-07
6.680519482940642e-07
7.985165820433381e-07
9.27826467433349e-07
1.0476961168683556e-06
1.1494148610362742e-06
1.2249431477343605e-06
1.2680059288795885e-06
1.2749712970391696e-06
1.245349560531824e-06
1.1818283437313825e-06
1.089852136546257e-06
9.768398209965412e-07
8.511943199000237e-07
7.212835425411836e-07
5.945581564520502e-07
4.769255623555576e-07
3.724347792260646e-07
2.832612639451862e-07
2.0992947890556463e-07
1.5168335219530335e-07
1.0691173630991126e-07
7.355206542151914e-08
4.942176910319127e-08
3.245479897017844e-08
2.084347375271461e-08
1.3100681638051214e-08
8.064175982222411e-09
4.865020873992997e-09
2.878657703982576e-09
1.6718713180523807e-09
9.537931703086677e-10
5.349073474549808e-10
2.9512977583667357e-10
1.6032327049791037e-10
8.581615711939779e-11
4.529709062741845e-11
2.3596022363145927e-11
1.2139769356729249e-11
6.173296027442642e-12
3.105168518198336e-12
1.5460872390130203e-12
7.625606923988838e-13
3.728270578279279e-13
1.8081022037553793e-13
8.703602428918275e-14
4.161031105568855e-14
1.9768834020888793e-14
9.338531354543134e-15
4.388538492037858e-15
2.0526684312462805e-15
9.560412354827744e-16
4.435912615512751e-16
2.0512461192830755e-16
9.457018070754493e-17
4.348747518243316e-17
1.9954722377090152e-17
3.044137962876202e-17
1.43348383541393e-17
6.736806594331453e-18
3.1572150650744904e-18
1.475099115739386e-18
6.874913344860465e-19
3.223083492398775e-19
1.5953556472934294e-19
9.051284141560455e-20
5.525899682451978e-20
2.890093116953157e-20
1.2355489233793083e-20
8.93107470161915e-21
2.5557993197973043e-20
1.0481228764525513e-19
2.951615263937303e-19
5.075463062780062e-19
4.493950498908839e-19
6.228936459890341e-20
7.571509748515182e-19
6.716924501798542e-18
2.386106748013622e-17
5.519811982892667e-17
1.0062875913678903e-16
1.8367794622409352e-16
4.283731336160579e-16
1.1852851093893614e-15
3.2011546813584444e-15
7.950291345996993e-15
1.859003522804024e-14
4.2562055581626426e-14
9.765493287599693e-14
2.2479616020466214e-13
5.141638711242718e-13
1.1584156210360188e-12
2.560476549629758e-12
5.5466996820563846e-12
1.177519654581997e-11
2.4497739699269438e-11
4.996849838944576e-11
1.0009180986185007e-10
1.976201259583598e-10
3.8698569655680983e-10
7.581278307300539e-10
1.5005146194777113e-09
3.0258015928347623e-09
6.240341612203182e-09
1.3128623788908716e-08
2.7946135431121388e-08
5.9535790063531015e-08
1.2558488076297187e-07
2.6000489675241606e-07
5.249555713122999e-07
1.0291624381450996e-06
1.9537998999270826e-06
3.5859598036333397e-06
6.35726529432811e-06
1.0881425865970953e-05
1.7979865414368177e-05
2.8680115583832757e-05
4.416932656776095e-05
6.568730085483327e-05
9.435184953412044e-05
0.0001309245263820851
0.00017554498703659457
0.00022748257529775777
0.0002849673550445619
0.00034516264969283375
0.00040432286002850727
0.00045814479099641535
0.0005022751303362285
0.0005328932857335084
0.0005472610540582606
0.0005441286830935716
0.0005239134447946972
0.0004886155642210556
0.00044149381148134506
0.00038657323901495694
0.00032808722294962
0.0002699589125401659
0.00021540554793662354
0.00016671175487322417
0.00012517678548630315
9.120658329472038e-05
6.450124631980938e-05
4.428351118425902e-05
2.9521471780034466e-05
1.9113632788190433e-05
1.2021042382979971e-05
7.345411590288118e-06
4.36158031640047e-06
2.517104793965289e-06
1.412088576509857e-06
7.701885780127275e-07
4.084843836793663e-07
2.106988249798008e-07
1.0570976007235402e-07
5.159153950458172e-08
2.449452455738373e-08
1.1312318641093303e-08
5.080397970755533e-09
2.2172559721632422e-09
9.391602155644936e-10
3.8516885254254793e-10
1.5233611365344835e-10
5.771501059525107e-11
2.0720733393028406e-11
6.9323552183527845e-12
2.114649875988815e-12
5.873221917417642e-13
1.7878008984847148e-13
1.0480243520149607e-13
1.0583953600606307e-13
1.0899068498974157e-13
1.0152609900515695e-13
8.653834711814707e-14
6.899947358063919e-14
5.233104968907184e-14
3.8203326578132875e-14
2.708057042273641e-14
1.876592930344023e-14
1.2781772199410399e-14
8.593233016356477e-15
5.719448657758744e-15
3.7747347053683795e-15
2.4712615205449194e-15
1.6042426161012251e-15
1.032195889220562e-15
6.587250373428011e-16
4.182790536369382e-16
2.660898448601223e-16
1.7148355238898844e-16
1.1353528098760958e-16
7.819717073458773e-17
5.630732146357797e-17
4.2135996175937053e-17
3.2293320186560375e-17
2.4912106722810708e-17
1.9055561559352556e-17
1.430887558074944e-17
1.0514579542112e-17
7.613259758736843e-18
5.556360159904099e-18
4.265381194944201e-18
3.619814845162147e-18
3.4628652197647837e-18
3.618409204697852e-18
3.914631158668228e-18
4.2099379977119846e-18
4.416205650079718e-18
4.5142763494769575e-18
4.5577315711192134e-18
4.663490573108636e-18
4.991231467393356e-18
5.717037675530576e-18
7.00899949534076e-18
9.013025689683834e-18
1.1855659856442643e-17
1.5667577752342135e-17
2.0627254803063923e-17
2.7019555220087215e-17
3.5298895702056405e-17
4.614101182029605e-17
6.046095802297382e-17
7.93680606050423e-17
1.0402270089106367e-16
1.3535885013569145e-16
1.7364695635747348e-16
2.1790373679349945e-16
2.652195519598754e-16
3.1017802753642063e-16
3.4468233765991456e-16
3.586484896678525e-16
3.421052740034825e-16
2.8912085754815724e-16
2.0346461669186876e-16
1.048032108352045e-16
3.2456208668644454e-17
4.1745704297354563e-17
1.8750069314470191e-16
4.948109435547856e-16
9.384988136353107e-16
1.509417598122948e-15
2.573123909233923e-15
5.985498079003237e-15
1.791797202923124e-14
5.520796002457475e-14
1.5848862403154856e-13
4.1761344112940836e-13
1.0182285746402124e-12
2.3229245529445984e-12
5.0061201868994045e-12
1.0268066427687083e-11
2.0158597173517508e-11
3.804275935315798e-11
6.923407120164721e-11
1.2180155996696065e-10
2.07518429434872e-10
3.42859592514613e-10
5.498737177291749e-10
8.566627578842664e-10
1.2971193889781062e-09
1.909533117272449e-09
2.733718592191927e-09
3.806480629317799e-09
5.155525596844775e-09
6.792337232270367e-09
8.70498727899162e-09
1.0852232022651017e-08
1.3160415031228232e-08
1.55245311804139e-08
1.781425227741446e-08
1.988482630854914e-08
2.1591722074614355e-08
2.2806975045627973e-08
2.3434690901079405e-08
2.3423278007860145e-08
2.2772705574420608e-08
2.1536163322079802e-08
1.981647122070801e-08
1.7757971936383958e-08
1.55342136198328e-08
1.3330816376262105e-08
1.1322457856535271e-08
9.644175570059966e-09
8.360981043118836e-09
7.445497070553563e-09
6.7783204363199844e-09
6.185954812671662e-09
5.5229034028357115e-09
4.787832333865065e-09
4.2441973537304595e-09
4.503652314218941e-09
6.536068860364526e-09
1.159602490608175e-08
2.109292958908942e-08
3.646091302212188e-08
5.908498540402862e-08
9.030434533013401e-08
1.314559508078169e-07
1.8387281187955165e-07
2.4874420531084055e-07
3.26792474724458e-07
4.178069246788923e-07
5.201601850522005e-07
6.304748014516834e-07
7.435863421512965e-07
8.528728656157867e-07
9.509209596156947e-07
1.0304122194049746e-06
1.085065273518951e-06
1.1104630697166561e-06
1.1046249733158192e-06
1.0682352608088468e-06
1.0045020353688006e-06
9.186838069730933e-07
8.173755788907432e-07
7.076825073086969e-07
5.964192631601399e-07
4.894549796205613e-07
3.9128263459085473e-07
3.048396764631174e-07
2.3155749157981422e-07
1.7158206554832366e-07
1.2409224346844533e-07
8.764444590853657e-08
6.048818350757136e-08
4.081813963480526e-08
2.6949589661771312e-08
1.7420303088610595e-08
1.1032139167755848e-08
6.849624259149029e-09
4.172391567311011e-09
2.4953297164483705e-09
1.4662663160166459e-09
8.471507730077856e-10
4.816094862044018e-10
2.6961320882077736e-10
1.487391765315705e-10
8.09233521169001e-11
4.3452196244811156e-11
2.3044208869361652e-11
1.2079345971452676e-11
6.262838170535155e-12
3.2140581087528903e-12
1.6337757287622199e-12
8.231527867907949e-13
4.113406473861523e-13
2.0399983495797419e-13
1.0046813149971227e-13
4.916427241092676e-14
2.391857152954789e-14
1.1574865819035458e-14
5.5745790431804885e-15
2.673214703013704e-15
1.276974881945292e-15
6.079264766142804e-16
2.8855460405645026e-16
1.3661536993685078e-16
6.454374905955696e-17
9.734155142151171e-17
4.718022206852669e-17
2.283677538639948e-17
1.1041428660687485e-17
5.337807242316976e-18
2.5882440937667458e-18
1.2697903395198977e-18
6.404836614184705e-19
3.328437453234352e-19
1.679057221015834e-19
7.200611700550776e-20
2.1082813891045366e-20
2.291664069175562e-21
1.751713443894829e-20
9.895258317901169e-20
2.652070535316676e-19
4.3395108876217165e-19
4.354992930234925e-19
3.1121658965097143e-19
9.509275905292112e-19
4.468076286537967e-18
1.2636743864482625e-17
2.28236123261551e-17
2.7393268181119026e-17
2.971395356348895e-17
8.218295532743976e-17
3.251851550092148e-16
9.994521993775654e-16
2.4844745229934856e-15
5.597649859116785e-15
1.2592195024413416e-14
2.946888879271144e-14
7.062281043875087e-14
1.681847894802701e-13
3.9163737126054847e-13
8.892142679287982e-13
1.9719332634453094e-12
4.275214878753403e-12
9.055802711799884e-12
1.8724820946229113e-11
3.781798630499171e-11
7.48746700882625e-11
1.4646178034819214e-10
2.8666543390088064e-10
5.706994396735e-10
1.1738481855648265e-09
2.514331617371773e-09
5.5836548404380135e-09
1.2669649927957907e-08
2.8849487688326385e-08
6.489361961367096e-08
1.425789380350336e-07
3.0381520798347916e-07
6.253140433811651e-07
1.2405296071374914e-06
2.3699127237974015e-06
4.3587304052305195e-06
7.71850527177996e-06
1.3163586809155076e-05
2.162920492685274e-05
3.425315579527425e-05
5.2302357028545015e-05
7.703038784581377e-05
0.00010946444054669553
0.00015013937797938432
0.00019881930359409502
0.0002542667089826654
0.0003141278653652966
0.0003749939282050675
0.00043266793705852346
0.0004826228986440096
0.0005205864306046742
0.0005431477397789588
0.0005482665219346159
0.0005355778396390601
0.0005064297709852044
0.0004636500450351992
0.0004110970823120745
0.00035309345225297884
0.00029385533532391424
0.00023701866321648095
0.00018532820075598636
0.00014051205339143228
0.0001033236188088069
7.370514223528648e-05
5.101563172734744e-05
3.426950086421246e-05
2.234597371824897e-05
1.4146912361447201e-05
8.697098956596083e-06
5.192928284890265e-06
3.011931650643987e-06
1.697214741190801e-06
9.292758479011064e-07
4.944441642933403e-07
2.556765614344922e-07
1.284941217014736e-07
6.275987510939814e-08
2.978696916692318e-08
1.3733287870621897e-08
6.14685296335964e-09
2.6679034717764326e-09
1.120673147416863e-09
4.5409187104650345e-10
1.7649824155793658e-10
6.518197757309456e-11
2.2490963566111753e-11
7.026817923726104e-12
1.863318455492913e-12
3.5852223265183824e-13
3.430582391482533e-14
2.7915988578690247e-14
7.07183617904213e-14
9.669846738387164e-14
1.0061657206125895e-13
9.066495816887706e-14
7.481779891185473e-14
5.816814589888561e-14
4.3300984746877774e-14
3.117673187020248e-14
2.185956992206524e-14
1.4997230805011323e-14
1.0101303185563471e-14
6.693031610106417e-15
4.366316312956341e-15
2.8040329927710772e-15
1.771266875220295e-15
1.0997905013850283e-15
6.715632777837086e-16
4.047078485653866e-16