# vtk DataFile Version 4.1 
COMMENT
ASCII
DATASET STRUCTURED_POINTS 
DIMENSIONS 300 300 1 
ORIGIN 0 0 0
SPACING 0.020943951023931952 0.020943951023931952 0 
POINT_DATA 90000
SCALARS U double 1
LOOKUP_TABLE default
2.9499797743612595e-19
3.9273536784284403e-19
1.2634890666097158e-18
3.1824486920977176e-18
7.16726130132982e-18
1.5779021741336953e-17
3.487872708641494e-17
7.824208168716078e-17
1.7836068109656887e-16
4.1085551037336294e-16
9.499830281493167e-16
2.193360652110263e-15
5.033307571534621e-15
1.1422998782335746e-14
2.5502477112286364e-14
5.5712104251129474e-14
1.184709241784238e-13
2.439342587527238e-13
4.836002385687998e-13
9.172616192533259e-13
1.6518936838419751e-12
2.7970782222494106e-12
4.393428844474286e-12
6.274626784212775e-12
7.892673791104574e-12
8.296892453022493e-12
6.843598357198561e-12
5.981387867448294e-12
1.876761610691083e-11
8.570948788517634e-11
3.0799450148443013e-10
9.068588873331936e-10
2.3213029392411574e-09
5.35837661773557e-09
1.1412248221256581e-08
2.277148392798684e-08
4.304007037306647e-08
7.770786168258467e-08
1.3492053796751204e-07
2.265186904871572e-07
3.6944592564241854e-07
5.876808978038469e-07
9.14945978961704e-07
1.3985873425138084e-06
2.105155365062273e-06
3.1281989681576337e-06
4.598396793199754e-06
6.695158308651646e-06
9.65719590400273e-06
1.3787637747392485e-05
1.9447843079919027e-05
2.703432122998242e-05
3.693596435666999e-05
4.947422076785075e-05
6.483553430398066e-05
8.301079837926975e-05
0.00010375786827295289
0.00012659864801665776
0.00015085262840934692
0.0001756973375114946
0.0002002377576649237
0.0002235654002342313
0.0002447945650234697
0.00026307572344712034
0.00027759850739462766
0.00028760361977264097
0.0002924206024534681
0.00029153730939424874
0.0002846914837938888
0.00027196132731474565
0.0002538259580685036
0.00023117080761510996
0.0002052260710463572
0.00017744387298502726
0.00014933604417096004
0.00012230428289244441
9.749538118016301e-05
7.57065457650677e-05
5.735261779139573e-05
4.249246565047524e-05
3.090004483415075e-05
2.2159211413236495e-05
1.5760989065382883e-05
1.11864762739576e-05
7.96571169824668e-06
5.710179917972428e-06
4.122386319012986e-06
2.989152086011004e-06
2.1660039060135734e-06
1.5589248328002154e-06
1.1077061316008368e-06
7.730163189705782e-07
5.276192064522652e-07
3.511397038210757e-07
2.273535237257815e-07
1.4298691220380355e-07
8.724765425280908e-08
5.160116318773636e-08
2.955433385527742e-08
1.6375837986306513e-08
8.767333965019062e-09
4.528078309436427e-09
2.2513320563211494e-09
1.0748345092641276e-09
4.914497102826076e-10
2.1494163404484026e-10
9.036774923737068e-11
3.7421742666618066e-11
1.6375372530487435e-11
8.5718489755236e-12
5.773698304404014e-12
4.6216407696159385e-12
3.896504464406128e-12
3.2411024241785537e-12
2.6024543481938234e-12
2.008934070956133e-12
1.4927539584850767e-12
1.0701877778750125e-12
7.418311822294719e-13
4.980147810899016e-13
3.2416803280121805e-13
2.047127873477176e-13
1.2540216329967233e-13
7.442574765860518e-14
4.267460761751027e-14
2.3515853596414746e-14
1.234361168201769e-14
6.083784686794066e-15
2.7513755361598343e-15
1.1003606965065323e-15
3.690840802623547e-16
1.057652767252576e-16
5.33696109189651e-17
7.500903832785405e-17
1.0574845831610234e-16
1.2144175402660923e-16
1.1880964720762553e-16
1.0321359118814236e-16
8.179188176408364e-17
6.023824450414882e-17
4.18629804173963e-17
2.787498002518854e-17
1.8123769901368328e-17
1.1833884840614367e-17
8.114583343793097e-18
6.208726082986503e-18
5.5471730364215255e-18
5.709002828922433e-18
6.373924812212588e-18
7.315479860252703e-18
8.443348762616663e-18
9.875141555736012e-18
1.2009103831148209e-17
1.5578140275680186e-17
2.1685677248579466e-17
3.1846011435412615e-17
4.8067511069461104e-17
7.302057506799017e-17
1.1032054600202746e-16
1.649272325192419e-16
2.436161982993125e-16
3.554128047117499e-16
5.118040844082833e-16
7.264751646879764e-16
1.0142990552461312e-15
1.3894184694456543e-15
1.862615777859269e-15
2.4389346282393776e-15
3.1178825251507975e-15
3.900675204800196e-15
4.811934786082529e-15
5.94681332382856e-15
7.558000401399779e-15
1.0199121451986887e-14
1.4939476867863006e-14
2.3657137202806298e-14
3.94005230948204e-14
6.678220204661066e-14
1.1233742858533633e-13
1.847589453450639e-13
2.949412910712988e-13
4.558925885498843e-13
6.829029609114332e-13
9.95070215138008e-13
1.4206740613100536e-12
2.0114986087875872e-12
2.8760470581851306e-12
4.250648290312155e-12
6.644571861583517e-12
1.1127845767465794e-11
1.98924228845705e-11
3.7334163259947687e-11
7.21202962333769e-11
1.411036423059111e-10
2.7665419440602626e-10
5.402176661353414e-10
1.0470171679728243e-09
2.0102840613196117e-09
3.81890676048017e-09
7.170716985895044e-09
1.3295531002252125e-08
2.4317803021970595e-08
4.382740643097651e-08
7.77454163822079e-08
1.3558293825355052e-07
2.3218317226564231e-07
3.8999276650116196e-07
6.418069079572859e-07
1.033753337857437e-06
1.6280139529808196e-06
2.5044444872299773e-06
3.7599014855796805e-06
5.503838011770522e-06
7.848762657487751e-06
1.0894685250611082e-05
1.4707887346502728e-05
1.9296317069287024e-05
2.458641709283691e-05
3.040868090443653e-05
3.650073525506217e-05
4.2536071629576335e-05
4.8182648737849384e-05
5.318812155831271e-05
5.747836071512067e-05
6.124572273622322e-05
6.49970060697641e-05
6.953218828243782e-05
7.583646056497362e-05
8.488920239009398e-05
9.741978733903774e-05
0.00011366350043259711
0.000133182382216572
0.00015480897604979615
0.0001767449107055927
0.0001968071947600569
0.00021277474222448567
0.0002227591428540264
0.00022551659054808313
0.00022063436444474022
0.00020855933458270253
0.00019047605740111289
0.00016807562741602368
0.00014327472618887334
0.0001179446890849417
9.369636875643577e-05
7.174518055228379e-05
5.2859410667145136e-05
3.737894139596846e-05
2.5283106185522023e-05
1.6284770996804505e-05
9.930751201192393e-06
5.6938717005763865e-06
3.047515441794687e-06
1.5183851773036072e-06
7.170939127600142e-07
3.490876568351042e-07
2.1032182544887942e-07
1.730477867093477e-07
1.6702572128182054e-07
1.6059620778166914e-07
1.4461363746129013e-07
1.206711094164859e-07
9.370583367374977e-08
6.820152772913533e-08
4.6846298679495465e-08
3.055288116409818e-08
1.9022299019925834e-08
1.1361606166303398e-08
6.5402455530630985e-09
3.6447869005933007e-09
1.9750082419572613e-09
1.044950827072748e-09
5.418773223607802e-10
2.762798262857742e-10
1.3879858914909712e-10
6.877218410127652e-11
3.359167944463938e-11
1.614567560212538e-11
7.614335949165291e-12
3.5111093286634512e-12
1.5776766211610888e-12
6.891894648500547e-13
2.927371183311587e-13
1.2149149402962832e-13
4.9887179687291756e-14
2.0731558707525592e-14
8.985020729864307e-15
4.16218055824693e-15
2.0650825700238665e-15
1.07247672367191e-15
5.643600747058096e-16
2.932356471250823e-16
1.4834781516569536e-16
7.243027930083188e-17
3.354924056076375e-17
1.437242942921362e-17
5.81280596592931e-18
2.6264472049836858e-18
1.485903503864415e-18
7.710362739196485e-19
6.732544840535032e-20
1.0434350338955454e-19
5.210289930699877e-19
1.201088998521955e-18
2.6223869853275044e-18
5.851740635712353e-18
1.3209153425460093e-17
3.059183643963751e-17
7.246508894198473e-17
1.7258923577157506e-16
4.0906123798933787e-16
9.625453356964923e-16
2.245538943261906e-15
5.1765924033543394e-15
1.1737845681749393e-14
2.6051703197799592e-14
5.63172304359548e-14
1.179548269111871e-13
2.37954442226233e-13
4.59184504787597e-13
8.4051157410179e-13
1.4433910373576364e-12
2.2892573524482244e-12
3.27136312521545e-12
4.029603685390023e-12
3.891426719871652e-12
2.225620197617008e-12
6.514022481052892e-14
4.761830030754534e-12
4.083160143251293e-11
1.7201331624314877e-10
5.417400067407565e-10
1.4415293999002452e-09
3.419371406935439e-09
7.443893772681215e-09
1.5146724831210052e-08
2.9177259629615955e-08
5.372225654856864e-08
9.526628462000003e-08
1.6369474732904066e-07
2.738665573283794e-07
4.4781135300100513e-07
7.177450303788893e-07
1.1301501931466238e-06
1.751205198258488e-06
2.6737731867275056e-06
4.025817568812659e-06
5.979318496117988e-06
8.75748069128141e-06
1.263651092657658e-05
1.7937181349665002e-05
2.5001751986752876e-05
3.4154433821862025e-05
4.5648498443233317e-05
5.960918150361778e-05
7.598627217595323e-05
9.453094880665861e-05
0.0001148062983311014
0.00013623073204280727
0.00015814164378636844
0.00017985827829755175
0.00020072238819958293
0.00022010430408766704
0.0002373776907449574
0.00025188221258765027
0.0002629024459465024
0.00026968893249658133
0.00027153324745405043
0.00026788824723173685
0.0002585050926304462
0.00024354777170120206
0.00022364794791676282
0.0001998774786060594
0.00017363792183448527
0.00014648846523074603
0.00011994905377862597
9.531988255942679e-05
7.355152276013705e-05
5.518494351562879e-05
4.0362786086233356e-05
2.8897735804214668e-05
2.037444297548383e-05
1.4259455004536137e-05
9.99798144015601e-06
7.084438373771509e-06
5.102619889109596e-06
3.738605893908562e-06
2.7738411919183443e-06
2.06708328624724e-06
1.5328361903965221e-06
1.12155247674504e-06
8.043206626072156e-07
5.626591563965941e-07
3.827153272275858e-07
2.52600414182683e-07
1.6157513458746491e-07
1.000839249788491e-07
6.000533212611721e-08
3.480907382363137e-08
1.953115887016993e-08
1.059617516507877e-08
5.556717293716458e-09
2.816270478539046e-09
1.3800883299229675e-09
6.551755588276556e-10
3.02963627288297e-10
1.3823626217581944e-10
6.393285176351156e-11
3.137615311373192e-11
1.724384134546628e-11
1.0889291001933155e-11
7.699859900480159e-12
5.789188722935125e-12
4.43390611629636e-12
3.3746169772033477e-12
2.521721561224181e-12
1.8400671120412583e-12
1.307860998105469e-12
9.043946547405047e-13
6.080086374781491e-13
3.971361756073688e-13
2.518118875724099e-13
1.5477925055140675e-13
9.200544852681857e-14
5.2679525276815886e-14
2.8863522234385765e-14
1.497291690915351e-14
7.225475792518685e-15
3.145669079488721e-15
1.1641605684789981e-15
3.179518359150167e-16
3.8025927768197434e-17
4.656336591272808e-18
5.1238236616155544e-17
1.0140955280455097e-16
1.2862095689806965e-16
1.3087192154908744e-16
1.1574870270519657e-16
9.239100027950257e-17
6.793037412168033e-17
4.6575118286747683e-17
3.0026024564194957e-17
1.8350689489696235e-17
1.0817482825523982e-17
6.475575280590244e-18
4.4555780119463874e-18
4.063701871913475e-18
4.7706795781676774e-18
6.180118315928273e-18
8.023781078581637e-18
1.0193196663292269e-17
1.2791008842497202e-17
1.6177348238458596e-17
2.099520720954383e-17
2.817816165991316e-17
3.8965115686259554e-17
5.4961500814541377e-17
7.828799580109901e-17
1.1184225930913667e-16
1.596641869061496e-16
2.2734008749066225e-16
3.2230787381760074e-16
4.5384235757610325e-16
6.324285998265952e-16
8.682149735793008e-16
1.1683488603761626e-15
1.53334489143717e-15
1.953361104208518e-15
2.406525745802578e-15
2.863414136422479e-15
3.3044808145122905e-15
3.760563152507399e-15
4.389984377880313e-15
5.6082714004024094e-15
8.286451405026268e-15
1.4029296863768988e-14
2.553409758786329e-14
4.701386427094147e-14
8.465142829530808e-14
1.4704693507523003e-13
2.456600632110123e-13
3.95382389332761e-13
6.156919399154542e-13
9.334838283401874e-13
1.389878811572568e-12
2.055518460393081e-12
3.0628881302202014e-12
4.671700247288914e-12
7.397558453286784e-12
1.226131881366524e-11
2.1268739367293686e-11
3.8329191295163585e-11
7.100768697085375e-11
1.3384420506578e-10
2.545819559454745e-10
4.857051627615501e-10
9.254797337238288e-10
1.755627928411905e-09
3.3074030029261387e-09
6.174819938151988e-09
1.1403773133455624e-08
2.079902954864127e-08
3.740705074666378e-08
6.624899909012479e-08
1.1539010896982846e-07
1.9743005266807523e-07
3.3147086110901175e-07
5.455476375561662e-07
8.79375523939411e-07
1.3870630861224155e-06
2.1391732613961163e-06
3.2232148516859617e-06
4.7414014548113835e-06
6.8044531294790585e-06
9.520511438437159e-06
1.2979062526393587e-05
1.7231209231137097e-05
2.2269610616037052e-05
2.8013533556307197e-05
3.430601535737749e-05
4.0930143039672435e-05
4.764895415060418e-05
5.4267962619241385e-05
6.071129802263229e-05
6.709372891577206e-05
7.376444914713145e-05
8.129793100078362e-05
9.041499693989859e-05
0.00010183372892499556
0.00011607170161650523
0.00013324188613280923
0.00015289661030403777
0.0001739708977244954
0.00019485656764090626
0.0002136059762379358
0.00022822877967276176
0.00023701816255775906
0.00023883374237060185
0.0002332798940937344
0.00022074633898423463
0.0002023128690306197
0.0001795509077659214
0.00015427282754395017
0.0001282824824386021
0.00010316969016453151
8.017333444561425e-05
6.011895364827586e-05
4.3422026127041725e-05
3.013979112468629e-05
2.0052000606146684e-05
1.2752700342138787e-05
7.738941140851073e-06
4.486679073995366e-06
2.5082204439644725e-06
1.3891330607200464e-06
8.055282565032304e-07
5.24938480151465e-07
3.9550838987936134e-07
3.287318230234831e-07
2.805066433406289e-07
2.340721591539902e-07
1.8683940856627336e-07
1.4165497752514029e-07
1.0197163467438217e-07
6.985691115230132e-08
4.56931627037442e-08
2.8641263526679967e-08
1.726992419291431e-08
1.0056720339847792e-08
5.678687836680056e-09
3.122140468926504e-09
1.678175521737232e-09
8.852480814582635e-10
4.5980350083202317e-10
2.3574133154147825e-10
1.1946805263454166e-10
5.985087159597069e-11
2.960836093411943e-11
1.4434374300072306e-11
6.917446376107787e-12
3.2516199744485543e-12
1.4976611897903676e-12
6.767696438948403e-13
3.015071332241224e-13
1.3370426901756598e-13
5.986169213487258e-14
2.7491736889088143e-14
1.3097887948716163e-14
6.476016028740333e-15
3.2853834501605067e-15
1.6803873948016038e-15
8.51968789253127e-16
4.2259175425042443e-16
2.028869814443476e-16
9.330538592167979e-17
4.089522601031061e-17
1.7350279507744543e-17
7.344787836000617e-18
2.9603667836665066e-18
8.687816414324267e-19
5.943616093067484e-19
3.3303775779398372e-19
3.3081172294909987e-19
4.1913945710576385e-19
9.00908780681875e-19
2.0717522914922985e-18
4.649686302326918e-18
1.1186421829275929e-17
2.813658381264428e-17
6.99674331352844e-17
1.7013939949422136e-16
4.0839993103517597e-16
9.72033969257001e-16
2.2871215048212616e-15
5.292974613630381e-15
1.1993594266532123e-14
2.649497376112634e-14
5.6779999854029126e-14
1.1735167742957184e-13
2.3230026722185903e-13
4.3683181648076934e-13
7.723331614193874e-13
1.2660045425907929e-12
1.8846066800958103e-12
2.4648997257196414e-12
2.679310699325668e-12
2.2484443722136883e-12
1.9461043884600365e-12
6.558171651023327e-12
3.193284940612508e-11
1.1960017859365834e-10
3.640566512108977e-10
9.596456485452744e-10
2.276306687984631e-09
4.977423024967408e-09
1.0200772157361912e-08
1.9838055852114986e-08
3.6971756423321024e-08
6.655941507953719e-08
1.1649012002171377e-07
1.9916856906765186e-07
3.3380210974263324e-07
5.495729480046207e-07
8.898674138244909e-07
1.4176849861978116e-06
2.2221989434975405e-06
3.4260768776910353e-06
5.192473988564738e-06
7.729566928152788e-06
1.1289333535613275e-05
1.6156584490957535e-05
2.2624853569613877e-05
3.095837698838719e-05
4.1344071658057305e-05
5.3843004043453255e-05
6.835498879036988e-05
8.460992658237427e-05
0.00010219355476262092
0.00012060414048364671
0.00013932392641183446
0.00015788038490467289
0.0001758726074389744
0.00019294931139075865
0.0002087440591576045
0.00022279324338078617
0.00023447467294313785
0.00024300301913860687
0.0002475020781503477
0.00024714792248396516
0.00024135080334741318
0.00022992680462300972
0.00021320902201841553
0.00019206300233700453
0.0001677971565613399
0.00014198713898537946
0.00011625482094035233
9.205141367141477e-05
7.04890691178873e-05
5.2249027973528076e-05
3.757314954499087e-05
2.6326071166993527e-05
1.810231706267968e-05
1.2348545522499326e-05
8.474975224542928e-06
5.938991681618628e-06
4.294415441961724e-06
3.208858338849045e-06
2.457229002918055e-06
1.9014251782375643e-06
1.465305024256164e-06
1.11142118495671e-06
8.229756838544278e-07
5.918992642053246e-07
4.1229503854519504e-07
2.777326250055786e-07
1.8081349270637508e-07
1.1375121250759472e-07
6.9159716316131e-08
4.0647875234903396e-08
2.3103380371781412e-08
1.2705769991540092e-08
6.766750680645329e-09
3.4949235466469304e-09
1.7550608102060714e-09
8.609309891944532e-10
4.1597623695621305e-10
2.0077646282171713e-10
9.89445313780981e-11
5.123065053189488e-11
2.8643106078709283e-11
1.7512141027073584e-11
1.1598745948634183e-11
8.124469770868001e-12
5.8657562433182096e-12
4.2783906051577145e-12
3.1100484210233946e-12
2.2334551587303535e-12
1.5755565467618394e-12
1.087599040878903e-12
7.326432697786205e-13
4.805868580403147e-13
3.0637046575219705e-13
1.89387406024557e-13
1.1318943927048488e-13
6.512685123252767e-14
3.5844821091730953e-14
1.868618943949718e-14
9.084364927055181e-15
4.014949308248473e-15
1.5432722694338372e-15
4.763345411661212e-16
1.0915461981870107e-16
4.736855239719419e-17
8.703540862917537e-17
1.3538887991391903e-16
1.6010594386773637e-16
1.5811632866589982e-16
1.3758415777345669e-16
1.0851611774472261e-16
7.872711827296761e-17
5.284149190694204e-17
3.275329910246133e-17
1.85635127472312e-17
9.465302479187941e-18
4.3651080670062874e-18
2.2199272948606036e-18
2.164537224592487e-18
3.525900270374528e-18
5.804502330409955e-18
8.667664120183467e-18
1.1965468908589497e-17
1.5756905223507682e-17
2.032694582153302e-17
2.6183670709419647e-17
3.4042720115226753e-17
4.4826211405818133e-17
5.971626357180642e-17
8.030239358052581e-17
1.0884258258907117e-16
1.4861750547053452e-16
2.0429660642795606e-16
2.821575692075291e-16
3.8991842939826954e-16
5.358771836446052e-16
7.270482187658443e-16
9.66102691308315e-16
1.2472527496043784e-15
1.5518850036622343e-15
1.845881101374121e-15
2.082287601663415e-15
2.2153782934189256e-15
2.23510966414397e-15
2.234163345421637e-15
2.52247703376766e-15
3.8052432370075466e-15
7.438417876620328e-15
1.576983971114119e-14
3.256490283772134e-14
6.350829853113848e-14
1.167803302942774e-13
2.037528877584004e-13
3.399801077718194e-13
5.469428641991033e-13
8.555572071686787e-13
1.3134614702298822e-12
1.9998899622944414e-12
3.0551714401051333e-12
4.737865486489809e-12
7.53391366879423e-12
1.2364169887857641e-11
2.0979322083875727e-11
3.671309770718596e-11
6.591892929344102e-11
1.206991515206491e-10
2.2404449233665464e-10
4.1938740944633465e-10
7.880685284199907e-10
1.480657326069892e-09
2.7719066654986416e-09
5.154896142267319e-09
9.498166294816711e-09
1.7300678541141756e-08
3.109295969955754e-08
5.5047308563590155e-08
9.587197984654992e-08
1.640675366217292e-07
2.756084179381532e-07
4.540663871739113e-07
7.331007120021426e-07
1.159091338516851e-06
1.793484895991242e-06
2.714178847581342e-06
4.015038878215589e-06
5.802522302403903e-06
8.188498142870507e-06
1.1278859584570325e-05
1.5158524793132702e-05
1.9874903548147583e-05
2.542363935108192e-05
3.174190949621187e-05
3.871501799676184e-05
4.6200615153019376e-05
5.4071062018407944e-05
6.22683781220655e-05
7.085908517714268e-05
8.007040762120742e-05
9.028763377695817e-05
0.00010199745109251442
0.00011567444656797442
0.00013162561413145979
0.0001498256640481288
0.00016978759659365446
0.0001905125735251785
0.00021054823765535266
0.00022815808339142612
0.00024157390287509757
0.0002492786954456105
0.00025025723792677885
0.00024415936181936893
0.00023134407587513612
0.00021280303748727589
0.00018998967269025344
0.00016459758495075377
0.0001383354641499788
0.00011273720201319408
8.903043933900426e-05
6.807025204796966e-05
5.0331646357054925e-05
3.5946984149588556e-05
2.4772078328505916e-05
1.6465836277804448e-05
1.0571139121757733e-05
6.587825354789913e-06
4.0316424754001855e-06
2.475793870555828e-06
1.574324628760343e-06
1.068994263507381e-06
7.832080588844988e-07
6.076902813776797e-07
4.826921837642153e-07
3.807184229800603e-07
2.9236684691571335e-07
2.1636562111324293e-07
1.5365659979749643e-07
1.0463133158052915e-07
6.838638850790141e-08
4.299131878702175e-08
2.6066944895901524e-08
1.529350612323474e-08
8.71399278881307e-09
4.841135086011599e-09
2.633343643587653e-09
1.408306487769263e-09
7.433031624813743e-10
3.883726314330745e-10
2.0128231320998793e-10
1.0354319917518454e-10
5.2833212129796683e-11
2.6694708740439246e-11
1.332698918285057e-11
6.561363911199926e-12
3.1830565493083566e-12
1.5231277440269008e-12
7.214998631478956e-13
3.4050668718353903e-13
1.6147343831097441e-13
7.76031609271387e-14
3.800474793530945e-14
1.8960705816727977e-14
9.575188068534825e-15
4.844150788864443e-15
2.4274724881417856e-15
1.1925269381800851e-15
5.692101845313555e-16
2.6205934653316905e-16
1.1591343488276148e-16
4.9242119323137875e-17
1.9910752701729818e-17
7.304455465047135e-18
2.212127913562714e-18
2.3760659335968453e-18
8.184007191700414e-19
1.9964140537623162e-19
5.671629759081459e-20
3.24131323043291e-19
7.334659793027075e-19
1.4133878289513596e-18
3.7499804869767434e-18
1.0709062400691368e-17
2.789455960019494e-17
6.86382070123306e-17
1.6735218533791027e-16
4.080826174981932e-16
9.854171517785716e-16
2.3377380254457584e-15
5.430650751498686e-15
1.231984375036115e-14
2.7173857737799784e-14
5.793464778594264e-14
1.185966926519093e-13
2.314272426511288e-13
4.2701237382878826e-13
7.378933052556511e-13
1.1807188833350852e-12
1.7294073258485129e-12
2.3158259671112196e-12
2.9911808627594983e-12
4.59925651558319e-12
1.07250382481754e-11
3.2348461354473375e-11
9.755632033066277e-11
2.6978034187519574e-10
6.79307508392391e-10
1.574570357445235e-09
3.4031315321150334e-09
6.939725544784486e-09
1.3493617719528765e-08
2.525297552296191e-08
4.5860388431328016e-08
8.135676485961263e-08
1.4167095928502562e-07
2.4285684178006485e-07
4.1027497013956356e-07
6.828681788451825e-07
1.1185650884656972e-06
1.8006154639846892e-06
2.8442431110898037e-06
4.402328404333186e-06
6.667927982323966e-06
9.870539992365812e-06
1.4262657186241458e-05
2.0094055024644574e-05
2.757405435936093e-05
3.682664066740361e-05
4.784864488582116e-05
6.048486939352977e-05
7.443333038862009e-05
8.928693021427839e-05
0.00010460559089584688
0.00011999899874155503
0.00013519061566251173
0.00015003418309564808
0.00016446695357662702
0.00017840644330534625
0.00019162179292012978
0.0002036269522028209
0.00021364308988346895
0.0002206598671778737
0.00022359458782843103
0.00022151520569782475
0.00021386952787160043
0.00020065723069860383
0.00018249556828979632
0.00016055890993575092
0.00013640659782151557
0.00011174208042174529
8.816065965417647e-05
6.694059826935537e-05
4.8915519327628896e-05
3.4441733950565984e-05
2.3450315208090305e-05
1.5556836078338105e-05
1.0194892616411437e-05
6.742442613739989e-06
4.619537985855213e-06
3.3480431959057248e-06
2.5746651562318968e-06
2.0657424356396194e-06
1.6851087853838306e-06
1.365664004135622e-06
1.0824665813336418e-06
8.316820584218544e-07
6.166774712840793e-07
4.405031873075333e-07
3.0302334520508937e-07
2.0081312117359342e-07
1.2829034019795293e-07
7.907602836001755e-08
4.7070511413749977e-08
2.708717560200143e-08
1.5088556278934088e-08
8.149850001924123e-09
4.279134503347205e-09
2.1923913854058524e-09
1.102505707025179e-09
5.490382107698145e-10
2.7425827275864226e-10
1.3977278527941052e-10
7.409107500521675e-11
4.1548764531466075e-11
2.4866011212930434e-11
1.5842249685358e-11
1.0620117948020261e-11
7.374575463513397e-12
5.223473738508285e-12
3.725083516551734e-12
2.647352189716041e-12
1.8604320833387055e-12
1.2854069458548494e-12
8.694414673757056e-13
5.738520028933153e-13
3.6859218597300833e-13
2.2980229063015317e-13
1.3866161024848113e-13
8.06742780392133e-14
4.5029272136135345e-14
2.394382510441647e-14
1.2013455311036436e-14
5.618031329764984e-15
2.420012027155944e-15
9.6801260144587e-16
4.003429280623176e-16
2.330686912771931e-16
2.1418011208793426e-16
2.2676174958424e-16
2.2712236696936753e-16
2.0711284777632538e-16
1.7265571256415144e-16
1.3269656961079902e-16
9.445908518236614e-17
6.217067932241125e-17
3.741751898246849e-17
2.0033808165174203e-17
8.961508924000715e-18
2.8621615802172424e-18
4.59321895257787e-19
6.794287360853195e-19
2.679463130488495e-18
5.83317625321764e-18
9.716927360933138e-18
1.4106563966424038e-17
1.8977393948611707e-17
2.4494042258069692e-17
3.098505346271417e-17
3.8913677835941634e-17
4.8873880153228124e-17
6.165099099875316e-17
7.838243904359694e-17
1.0083091649239836e-16
1.317384578804857e-16
1.7516716111116269e-16
2.3665723758754545e-16
3.2295914038209443e-16
4.410469706835435e-16
5.961318850265675e-16
7.885201042011205e-16
1.0094723941728138e-15
1.2368112602012325e-15
1.4319931163966724e-15
1.5418190414516394e-15
1.5099696977527706e-15
1.306095957542685e-15
9.830778380233828e-16
7.758128085135817e-16
1.256738522275119e-15
3.563302058869406e-15
9.710176873937102e-15
2.2995083038533124e-14
4.850585484340846e-14
9.374839835539445e-14
1.6946071949508867e-13
2.9079186122824043e-13
4.792609704199614e-13
7.663556276685458e-13
1.2004184449660217e-12
1.8598559654491976e-12
2.8781763032784803e-12
4.490939985284289e-12
7.123498704630076e-12
1.1555641909926878e-11
1.923319841349734e-11
3.2862568927323537e-11
5.7549506489335484e-11
1.0297539554885593e-10
1.8752092212720396e-10
3.459725119912794e-10
6.436696160007678e-10
1.2019413319974948e-09
2.24280080322582e-09
4.165553500956559e-09
7.674681533116811e-09
1.39874076983837e-08
2.5160639203829052e-08
4.458965172462664e-08
7.774264599127476e-08
1.332019413705862e-07
2.2407727909367388e-07
3.6983005189028075e-07
5.9848797450197e-07
9.491270710192797e-07
1.4743465613557484e-06
2.24226983507422e-06
3.3374012064605305e-06
4.859514991230722e-06
6.919746451789963e-06
9.633312201772141e-06
1.3108918441488004e-05
1.7435954488121267e-05
2.2671901148446486e-05
2.883367440786116e-05
3.589731307347831e-05
4.380982038264238e-05
5.251452593614626e-05
6.198696993700101e-05
7.227277336788574e-05
8.351393722089471e-05
9.594785433686693e-05
0.00010986623112486688
0.0001255300856803613
0.000143050787922012
0.00016226201548339428
0.00018261812213968243
0.000203155578344155
0.00022254321635197487
0.00023922561798402019
0.00025163809461501
0.00025844978971439013
0.00025878122349837733
0.00025234792703344495
0.00023950094576509522
0.00022116133557942505
0.00019867061604554107
0.00017359512839512227
0.00014752596900950642
0.0001219088577194976
9.792451302213018e-05
7.642536702745132e-05
5.79230288665962e-05
4.261464305742113e-05
3.0434731452031082e-05
2.112048547135094e-05
1.4280897564890207e-05
9.462383195105992e-06
6.205333077919039e-06
4.0876296583594235e-06
2.7529448018796112e-06
1.923714065198028e-06
1.4007858193462145e-06
1.0533854009148266e-06
8.037956282275088e-07
6.109032121946759e-07
4.5570407621167406e-07
3.304323296893451e-07
2.31637678380285e-07
1.5660162778627822e-07
1.0205613085277128e-07
6.416735917754394e-08
3.899599061340573e-08
2.296661566867513e-08
1.3151943095526893e-08
7.352233720784931e-09
4.030257095756536e-09
2.176736627989881e-09
1.1637870924551947e-09
6.18438414284597e-10
3.2757401843218503e-10
1.7315447394530281e-10
9.129321813425519e-11
4.791698101939994e-11
2.497175579965389e-11
1.2889818738878462e-11
6.580090162395499e-12
3.322352911516569e-12
1.6625103347331493e-12
8.276523400511939e-13
4.119373787520446e-13
2.059378846133933e-13
1.0369196038400945e-13
5.255777047186791e-14
2.67108367712344e-14
1.3522619097872613e-14
6.76737337941247e-15
3.3222131447290387e-15
1.5885879934242083e-15
7.353660138003589e-16
3.278139714674395e-16
1.398659370342891e-16
5.641631654426166e-17
2.104500719881915e-17
7.175816245843617e-18
8.01954396947188e-18
2.3926271130687114e-18
4.60931193156373e-19
1.1567383633976987e-19
3.0208990349985594e-19
2.922415618882652e-19
2.3302550906300204e-19
1.210081820270071e-18
4.417552931424965e-18
1.1264439066282455e-17
2.6575363249040216e-17
6.556591377421457e-17
1.6607295096950723e-16
4.1481229440986337e-16
1.0111532177661363e-15
2.413867721479833e-15
5.648736150779257e-15
1.2901063758595441e-14
2.8563715851150713e-14
6.090252083978788e-14
1.243173786393884e-13
2.4166496883444416e-13
4.4532210016890107e-13
7.757223850109819e-13
1.28126861459988e-12
2.0451797976959424e-12
3.3267957063234798e-12
6.047065418878977e-12
1.312134872548761e-11
3.258733505155031e-11
8.408535776436463e-11
2.1095551207398493e-10
5.009813840797621e-10
1.119910080443559e-09
2.3644026075862076e-09
4.7474134186307284e-09
9.14285878261376e-09
1.7041742349406343e-08
3.1010562311056066e-08
5.54919192357805e-08
9.813718030398326e-08
1.7189567963573567e-07
2.980831574651946e-07
5.105885618550565e-07
8.612203888572466e-07
1.4258973335577125e-06
2.310902313867676e-06
3.6577180845005085e-06
5.644117534639129e-06
8.47845607815937e-06
1.2384020696827299e-05
1.7571506926896867e-05
2.4200748748985324e-05
3.2337593539211634e-05
4.191706389741643e-05
5.2727311329897455e-05
6.442755104834019e-05
7.660537368846131e-05
8.886530052565533e-05
0.00010092520483737372
0.00011268669633110916
0.0001242460730963813
0.0001358269436415813
0.0001476413848600895
0.0001597151687186539
0.00017173298600719333
0.0001829623102483333
0.00019229623719328571
0.00019842100386253172
0.00020007428554845815
0.00019632954927677952
0.0001868305854716658
0.00017191272991965985
0.00015257883294167324
0.00013033798976247864
0.00010695050416082683
8.414308610983963e-05
6.33592500876593e-05
4.5593340143723824e-05
3.132974560535288e-05
2.0580897199779134e-05
1.2996489130925374e-05
8.006454562617396e-06
4.961729664892541e-06
3.246647193554005e-06
2.3502014324971966e-06
1.8959678411128388e-06
1.6391967923609672e-06
1.4435204919669943e-06
1.2494344828461925e-06
1.0437766775384674e-06
8.355267814584619e-07
6.397089632636005e-07
4.6871581301676457e-07
3.2912917982888026e-07
2.2186328904664263e-07
1.4381262724728726e-07
8.978413554250387e-08
5.4072101167621526e-08
3.14645295668996e-08
1.7723063268228844e-08
9.685325731840923e-09
5.150775129277821e-09
2.6771334868792757e-09
1.368159371993726e-09
6.93318261564785e-10
3.523029313092022e-10
1.81985587210104e-10
9.699070305119036e-11
5.404489016812364e-11
3.1755448131171676e-11
1.9708597435224627e-11
1.2853746655836973e-11
8.720336751013403e-12
6.077161473632811e-12
4.295327117599294e-12
3.044201130152643e-12
2.1433110106889513e-12
1.488403454138339e-12
1.0140896597849228e-12
6.752392066262125e-13
4.380947455141269e-13
2.7625805218212175e-13
1.6890499335553266e-13
9.986130295623213e-14
5.69171443962768e-14
3.1165830089123215e-14
1.6342231157248616e-14
8.200009405671841e-15
3.9686778961590205e-15