# vtk DataFile Version 4.1 
COMMENT
ASCII
DATASET STRUCTURED_POINTS 
DIMENSIONS 300 300 1 
ORIGIN 0 0 0
SPACING 0.020943951023931952 0.020943951023931952 0 
POINT_DATA 90000
SCALARS U double 1
LOOKUP_TABLE default
1.6048488611184584e-19
4.802834291064687e-19
1.1890243305077157e-18
2.6122892612472342e-18
6.257005605936146e-18
1.6085820638088605e-17
4.0988393070901165e-17
1.0130332300244397e-16
2.4462745129923913e-16
5.793563625541802e-16
1.3411254747482488e-15
3.0204860546032825e-15
6.598846833933672e-15
1.3956760432176752e-14
2.8518853546558636e-14
5.6154396708754444e-14
1.0621846597813486e-13
1.9238170268612803e-13
3.327380455415825e-13
5.493709136345535e-13
8.711724618597294e-13
1.3545852868664874e-12
2.1623827233633124e-12
3.790073262408867e-12
7.610105232356781e-12
1.7010507316473318e-11
3.9505383423255135e-11
9.022434042277782e-11
1.9706982760235203e-10
4.0756748182692233e-10
7.972988211344073e-10
1.4806501320815903e-09
2.6282340768216355e-09
4.504767642459857e-09
7.560594299529795e-09
1.2643833972420222e-08
2.1450622923524185e-08
3.7393840273302174e-08
6.712919297844626e-08
1.2299632816719316e-07
2.265585030196431e-07
4.1319921101093077e-07
7.373254445985479e-07
1.2771687892695312e-06
2.13759814253359e-06
3.4489802817968554e-06
5.36018651344896e-06
8.024498062968348e-06
1.157838392286073e-05
1.611470047926741e-05
2.1653492520273976e-05
2.811501277972142e-05
3.530068365568798e-05
4.288835814134067e-05
5.0448033341873786e-05
5.7482444191822474e-05
6.349296976813134e-05
6.806484693084488e-05
7.09578915719002e-05
7.218230274741333e-05
7.203691888023152e-05
7.109199101066807e-05
7.01103036988105e-05
6.991648993674977e-05
7.12396092591547e-05
7.456319311313292e-05
8.001669263842673e-05
8.733262239501862e-05
9.587791659585906e-05
0.00010475107085750952
0.00011292324802096763
0.0001193945996731951
0.0001233371737136909
0.00012420160439026125
0.00012177398860174096
0.00011617952367803215
0.00010783865556335281
9.738833324651347e-05
8.558476082277807e-05
7.320459945912799e-05
6.095922066909711e-05
4.9432129681160427e-05
3.904416794462016e-05
3.0045762090572358e-05
2.253132009859878e-05
1.6468479089235256e-05
1.1734377218760996e-05
8.152114558494455e-06
5.5224887320341365e-06
3.6482997436963618e-06
2.3504987482531734e-06
1.476902975370382e-06
9.05023956432079e-07
5.408298656347493e-07
3.1514198512187904e-07
1.7902456850766332e-07
9.911402754477439e-08
5.3447677854814794e-08
2.804691510660851e-08
1.4299923804987695e-08
7.066363601626561e-09
3.371040693935903e-09
1.5429981396912674e-09
6.711855983281276e-10
2.73368529373579e-10
1.0193114530236362e-10
3.380038376969986e-11
1.0031527862524172e-11
3.654954695979729e-12
3.073620515268279e-12
3.755550759857653e-12
4.221727871132155e-12
4.191852766625795e-12
3.7776358245182716e-12
3.1631412455321654e-12
2.4984735174776417e-12
1.878779888037642e-12
1.3522219360484856e-12
9.342887112341821e-13
6.206731581589484e-13
3.968552655476552e-13
2.4454867252796735e-13
1.456624410743389e-13
8.443769497573036e-14
4.8318226042907994e-14
2.8008461970246762e-14
1.707409079484821e-14
1.1347028833308311e-14
8.309025284363737e-15
6.5530151754545695e-15
5.363708992899329e-15
4.42059740595632e-15
3.605579755882799e-15
2.889546878284422e-15
2.2726562066670635e-15
1.7575914096786821e-15
1.3408764149767115e-15
1.012622059951557e-15
7.59192477359545e-16
5.660733206858868e-16
4.199060563481668e-16
3.0952943361576903e-16
2.262361875607884e-16
1.635406710257622e-16
1.167160277387057e-16
8.228587707362151e-17
5.758511733697059e-17
4.0448216497704066e-17
2.9039587799461257e-17
2.1806363987374624e-17
1.7509724992907796e-17
1.5280584497551817e-17
1.4651880035040476e-17
1.5541315013190657e-17
1.8187398089896475e-17
2.306586159358104e-17
3.0820767937075446e-17
4.222747148663363e-17
5.816450540371045e-17
7.952040747373983e-17
1.0692169372934472e-16
1.4016959780809687e-16
1.7734880105376243e-16
2.1374987487410546e-16
2.4104397806027563e-16
2.475588442639008e-16
2.2100693862001419e-16
1.5558969926591618e-16
6.60687006728424e-17
1.2273364422845334e-17
1.3885485415459322e-16
7.372506314002249e-16
2.3401085655705e-15
5.862820573628407e-15
1.2811595390143323e-14
2.5580838085105407e-14
4.786156595144034e-14
8.517379698699366e-14
1.4551717544258253e-13
2.401074724997758e-13
3.8414144916431185e-13
5.975291563337914e-13
9.055849544645009e-13
1.3398278161433096e-12
1.939388178843344e-12
2.7541927196840038e-12
3.852364685242322e-12
5.336631774998164e-12
7.378828826437161e-12
1.0289100242155578e-11
1.4648756185537615e-11
2.155449724060346e-11
3.30480358287548e-11
5.2840205896709406e-11
8.748752546727562e-11
1.482624411539593e-10
2.541383944200719e-10
4.367387170181551e-10
7.490840533194404e-10
1.2820598292117594e-09
2.1965184893062613e-09
3.785775981124204e-09
6.593613624919326e-09
1.1626217615377439e-08
2.070962413600722e-08
3.704976001853999e-08
6.603738136226796e-08
1.1628846133895374e-07
2.0080696473541127e-07
3.3799997341294486e-07
5.520933357058305e-07
8.723639765046671e-07
1.3306471982304653e-06
1.9569446163597534e-06
2.7737653282382115e-06
3.791058552442628e-06
5.004977964068396e-06
6.404699044184977e-06
7.991311148320586e-06
9.810672218064649e-06
1.1997723015774245e-05
1.4823646807524834e-05
1.8731059456785677e-05
2.43386435434407e-05
3.2397957135622016e-05
4.3693194261206984e-05
5.888893998908532e-05
7.834826572523332e-05
0.0001019585519332084
0.00012900946820363602
0.00015816266182730883
0.00018753566976529359
0.00021489736699119947
0.0002379459209847176
0.0002546202905637439
0.0002633881618061712
0.000263458358085508
0.00025488181528032956
0.00023852735110362468
0.0002159413687422558
0.00018912000178145517
0.00016023521838876272
0.00013136154635122463
0.00010424685300055211
8.0159597007446e-05
5.9828184179344706e-05
4.346907156216048e-05
3.088355049187846e-05
2.1592744514962565e-05
1.4978426482600242e-05
1.0403233513372564e-05
7.294810447635946e-06
5.190337392936579e-06
3.7473015795209473e-06
2.7313986136145454e-06
1.993112440222621e-06
1.442178826063879e-06
1.0255721799099977e-06
7.113292230617892e-07
4.782049357594145e-07
3.0996781925966006e-07
1.9281887031172076e-07
1.1459113820226692e-07
6.475128685174199e-08
3.459934564323481e-08
1.7366194326474225e-08
8.11762346047647e-09
3.494264140360508e-09
1.3658468357495264e-09
4.790502748576589e-10
1.5396669984920608e-10
5.4035459097365986e-11
3.0047321016740275e-11
2.491662267740949e-11
2.1435467090141e-11
1.6805903977452933e-11
1.1926546221054268e-11
7.789134256083817e-12
4.763711666100935e-12
2.7689977372594535e-12
1.5483004467621314e-12
8.405507291674228e-13
4.4584034023579627e-13
2.317997454576714e-13
1.1819122791886648e-13
5.900963047379709e-14
2.87695990458603e-14
1.3653134345788965e-14
6.286655930578339e-15
2.799754871719096e-15
1.2023118900097673e-15
4.966632591386109e-16
1.9702674474020142e-16
7.471943137518658e-17
2.660459377120258e-17
8.544594414606613e-18
2.4192797964063387e-18
7.34532779920413e-19
3.4096380986733808e-19
1.6933470273431706e-19
2.3653181259389303e-20
2.5695573073597836e-19
4.920234192134998e-19
7.830985886656316e-19
2.0015890560285613e-18
5.914979204701785e-18
1.571267444803193e-17
3.8885205197218396e-17
9.456281066221299e-17
2.27897839884608e-16
5.375730493849494e-16
1.2301918669809538e-15
2.724596079248364e-15
5.835283131922773e-15
1.206005753960355e-14
2.3965100656118277e-14
4.556188471718654e-14
8.236098139007986e-14
1.4051123591714982e-13
2.2446151184700237e-13
3.3410576588911685e-13
4.681846363379217e-13
6.561274578723004e-13
1.0736887488722375e-12
2.3580318495850082e-12
6.3306491334512645e-12
1.74541202785348e-11
4.546405391707682e-11
1.096947956438897e-10
2.4566639788701596e-10
5.147019886225177e-10
1.0182605201804135e-09
1.9215097470103623e-09
3.4975329890391304e-09
6.217523621677227e-09
1.0936967844590665e-08
1.926583621546402e-08
3.426086559535711e-08
6.162973955521058e-08
1.1166537455051266e-07
2.0209205064030278e-07
3.618539980329749e-07
6.355768154004825e-07
1.0879989755557171e-06
1.807200929587223e-06
2.9051249016605014e-06
4.5138694393180565e-06
6.776670094144292e-06
9.833292559450147e-06
1.3800567249832284e-05
1.8749758219452386e-05
2.468330267794211e-05
3.151430900917737e-05
3.905323530824382e-05
4.700724998390872e-05
5.499816167091847e-05
6.260327136965159e-05
6.941900434650825e-05
7.513983518651265e-05
7.963673414602844e-05
8.30135407532367e-05
8.561983990769756e-05
8.800685887933206e-05
9.08273195611305e-05
9.469675147322715e-05
0.00010004676456058669
0.0001070054417038713
0.00011533454995353135
0.00012443949405934902
0.0001334503269782123
0.00014135595968407314
0.0001471631454100931
0.0001500487959449318
0.00014947833519281497
0.00014527205375558928
0.0001376130160046116
0.0001270012949133988
0.0001141680777361744
9.996823668895097e-05
8.527091073252351e-05
7.086492608649585e-05
5.7390565773966655e-05
4.530272494120345e-05
3.486432931313103e-05
2.6164212332253643e-05
1.9151069730748025e-05
1.3674671822600397e-05
9.526765555953459e-06
6.47633269852685e-06
4.296361180824853e-06
2.7814706225462777e-06
1.7572951456929023e-06
1.0833908674499434e-06
6.51697877337302e-07
3.8242838045081964e-07
2.1886696988960402e-07
1.2211381684298537e-07
6.63818497747368e-08
3.512822337934186e-08
1.807289470492114e-08
9.023017825374513e-09
4.359859736565364e-09
2.0314443685324306e-09
9.085005493994629e-10
3.880449275038414e-10
1.580041461792993e-10
6.216148774682164e-11
2.5176452357432098e-11
1.2275609989304362e-11
8.275466596861153e-12
7.034650231237346e-12
6.351080270147879e-12
5.605209414184919e-12
4.734804077013017e-12
3.8250570917313315e-12
2.965721431812195e-12
2.214290034479823e-12
1.595744567116e-12
1.1116564962481468e-12
7.494712584096654e-13
4.896817777672281e-13
3.107876182045477e-13
1.9243234616734005e-13
1.171346716794094e-13
7.098052651502463e-14
4.360383089988219e-14
2.7743558007943022e-14
1.8610719394007057e-14
1.323303870718365e-14
9.878468204824417e-15
7.602459054938605e-15
5.9241374691595804e-15
4.613772875595114e-15
3.564891105062267e-15
2.7243894152348457e-15
2.058664342195449e-15
1.5398527483212958e-15
1.1419177224777246e-15
8.406626392891874e-16
6.147006099071692e-16
4.461669261019101e-16
3.208771672873731e-16
2.280222511494536e-16
1.5959752999811775e-16
1.0974528046821537e-16
7.413656414476206e-17
4.946720410749723e-17
3.310227666382933e-17
2.287121163314247e-17
1.6988342387833482e-17
1.4053172080964908e-17
1.3075901996117266e-17
1.3481271098338714e-17
1.5066634590745975e-17
1.7920631002768392e-17
2.2333867180496947e-17
2.8739670768679856e-17
3.7703464927801613e-17
4.993597191710334e-17
6.625226228070831e-17
8.736011988879352e-17
1.1336788961550398e-16
1.429833789910314e-16
1.7255036699184107e-16
1.9533666573106434e-16
2.0182176066902803e-16
1.8209030919579692e-16
1.3178806159166253e-16
6.346514259276866e-17
2.5659425834805532e-17
1.330535340457301e-16
6.128894386212283e-16
1.875937622745369e-15
4.624766325992492e-15
1.0017172243259743e-14
1.990658069164298e-14
3.718080117748313e-14
6.62115415570661e-14
1.134056242920012e-13
1.8781360353713347e-13
3.017070028857278e-13
4.709958745111179e-13
7.15351949345876e-13
1.0579778442989495e-12
1.5252024752113045e-12
2.146635520949299e-12
2.9577554532395457e-12
4.00904024970034e-12
5.389938890162117e-12
7.283461145116579e-12
1.0079783843719481e-11
1.4597343012720275e-11
2.2490224744675597e-11
3.696555855134355e-11
6.400345100180431e-11
1.1438906960064711e-10
2.0709183139647833e-10
3.7499309887712705e-10
6.749314460452947e-10
1.205951449640666e-09
2.143173755222436e-09
3.800655674273065e-09
6.745617909075608e-09
1.1998261635933192e-08
2.1363917504104206e-08
3.795194621038737e-08
6.692881200271699e-08
1.1651754543796575e-07
1.991791616076474e-07
3.3278934023219496e-07
5.414740084596342e-07
8.556448881111079e-07
1.310777169774051e-06
1.944720185750584e-06
2.7939330710393682e-06
3.889997827818952e-06
5.258900035017608e-06
6.926454376018535e-06
8.933250789551661e-06
1.1360942715623165e-05
1.4368223322244962e-05
1.8229742561151234e-05
2.3365734397206528e-05
3.034631880787155e-05
3.985468550559584e-05
5.259938193447774e-05
6.917777256718186e-05
8.990816413179749e-05
0.0001146627700449875
0.00014274240881975098
0.00017283239514638522
0.00020306611673541868
0.00023120066539526754
0.0002548832096174005
0.00027196457802531416
0.00028080383497069284
0.0002805076641805971
0.0002710607242862977
0.00025332436474571353
0.00022890610915313653
0.00019992585062355686
0.00016872231782371085
0.0001375519851444938
0.00010833081132297541
8.245753710601702e-05
6.073839263228568e-05
4.3411398988702044e-05
3.02492472571342e-05
2.0707541315106323e-05
1.4082350397901781e-05
9.646973071348096e-06
6.7494878119692465e-06
4.8657943056627915e-06
3.6136106767408665e-06
2.739090493971494e-06
2.0891268151852287e-06
1.580273499921029e-06
1.171396304503932e-06
8.433159570384503e-07
5.858105332142815e-07
3.906948063232902e-07
2.4910423378199334e-07
1.5120428493087752e-07
8.696245074132797e-08
4.7109953292852845e-08
2.3846312706283796e-08
1.114804835401767e-08
4.726961124843846e-09
1.7634240656240938e-09
5.473042609963886e-10
1.267680159174273e-10
2.0944049381874155e-11
1.4113747759665322e-11
2.442520231110677e-11
2.9089391736203935e-11
2.6675728214468757e-11
2.0794300188419356e-11
1.4521143302582302e-11
9.36677370128173e-12
5.6929552453974395e-12
3.305462652274591e-12
1.8514035463151713e-12
1.0069170535262504e-12
5.33813277750886e-13
2.7630571155161654e-13
1.3962068851410087e-13
6.87901811965978e-14
3.298372341906763e-14
1.5357538976481373e-14
6.927819991238997e-15
3.0208127874902345e-15
1.2702490924421665e-15
5.135752020860932e-16
1.9856224420532377e-16
7.26790904101569e-17
2.4924732947014945e-17
8.089793673361012e-18
2.5956366413409905e-18
7.706935362796681e-19
1.0754583190102233e-19
3.457920873047201e-19
3.830837964933659e-19
2.493260450808344e-19
9.132578923491864e-20
6.014043020234016e-19
2.4155945193194486e-18
6.181744989065223e-18
1.4425209361640805e-17
3.5263524064608187e-17
8.795567416886189e-17
2.1325710679363735e-16
4.96535149210095e-16
1.1153000964904525e-15
2.423832810305482e-15
5.085614666014153e-15
1.0249448048063312e-14
1.9706902760726318e-14
3.582278185448246e-14
6.078808433893153e-14
9.45699198538532e-14
1.314695531233001e-13
1.581541527035945e-13
1.6501530746074864e-13
2.0405597300036e-13
5.691756954396314e-13
2.248079741810108e-12
7.903976597426019e-12
2.3785570988040857e-11
6.31279393457488e-11
1.5181731343791918e-10
3.3748515298288406e-10
7.041619242783154e-10
1.3969939531073563e-09
2.666779864653908e-09
4.95443335583684e-09
9.053721401948075e-09
1.641929656966271e-08
2.9726270640356522e-08
5.383114896835636e-08
9.731424709646444e-08
1.7476879950010054e-07
3.099006690462048e-07
5.392830810180565e-07
9.16281220263077e-07
1.5142970866527652e-06
2.4282257458489947e-06
3.7730118683432842e-06
5.678520597846046e-06
8.280500899231874e-06
1.1707992764699937e-05
1.6067891187921955e-05
2.1427533916267755e-05
2.7796464740675986e-05
3.510944011839377e-05
4.3214500343411576e-05
5.187194351278191e-05
6.0770874884983655e-05
6.956792776314947e-05
7.794688716609009e-05
8.568931651976778e-05
9.27379962871551e-05
9.92311400267059e-05
0.00010548908496698572
0.00011194674520581538
0.00011904137070868418
0.00012708047369881694
0.00013612348071216046
0.00014590938380957066
0.00015585168957851016
0.00016510494148077082
0.00017268939397174584
0.0001776470945351038
0.00017919681820714468
0.00017685760401496575
0.0001705194648193167
0.00016045226296545123
0.00014725652385342615
0.0001317703378346259
0.00011495268691041334
9.776489403598997e-05
8.106889564792555e-05
6.555499001268296e-05
5.1704365953660555e-05
3.978480732231274e-05
2.9872823492295613e-05
2.1892742177943116e-05
1.566299310850107e-05
1.0941350818595762e-05
7.463468146751261e-06
4.971804529895963e-06
3.2344264224528935e-06
2.054810325157477e-06
1.2746568732986814e-06
7.719539491770256e-07
4.5631737902891275e-07
2.63201434337782e-07
1.4807535026280418e-07
8.121316025124843e-08
4.339392502945364e-08
2.2569411783546584e-08
1.141422549018811e-08
5.606577052574698e-09
2.6718924779019038e-09
1.2351458592424982e-09
5.551848134436743e-10
2.448613119397749e-10
1.0852170101515603e-10
5.0760298626044834e-11
2.6868729846968408e-11
1.6829742215188734e-11
1.215147675079942e-11
9.46165439008966e-12
7.52938617453793e-12
5.953379659521289e-12
4.621282146165034e-12
3.5050924410622006e-12
2.5924740624672445e-12
1.8680216823735955e-12
1.310708343213578e-12
8.956683296513282e-13
5.966934952954655e-13
3.8845842914646435e-13
2.481903509062334e-13
1.5668849911675867e-13
9.870779861665894e-14
6.281822853575812e-14
4.0911719962716394e-14
2.7538308681495267e-14
1.9221896887561883e-14
1.3854440598544101e-14
1.021560549484322e-14
7.625096865053156e-15
5.710838150689606e-15
4.266105447390407e-15
3.168249068497482e-15
2.3362258309886976e-15
1.7103874683733156e-15
1.243767542656573e-15
8.98588503804735e-16
6.447341779421488e-16
4.587413378142813e-16
3.2281385730446723e-16
2.237841525244887e-16
1.520860035067457e-16
1.0081821435099201e-16
6.495510407283307e-17
4.073311682281389e-17
2.5220746466608183e-17
1.6058925146462568e-17
1.1339153292445418e-17
9.570077463593774e-18
9.67660593140653e-18
1.09844578966405e-17
1.3166936731051127e-17
1.6161805502187372e-17
2.009114810759174e-17
2.5222623882626154e-17
3.198922691409951e-17
4.1039985385464987e-17
5.324177952788233e-17
6.951847557821266e-17
9.042769415941303e-17
1.1546239424612731e-16
1.4223292928272025e-16
1.6591971579456666e-16
1.7964569226494968e-16
1.7664681756077952e-16
1.5528262673884093e-16
1.280617392867686e-16
1.361191588934643e-16
2.712912507138229e-16
7.095336410613874e-16
1.7623409736982314e-15
3.957174113217364e-15
8.163078849194771e-15
1.5781916072662384e-14
2.9025664341070085e-14
5.129149408548819e-14
8.762365103306658e-14
1.452108898882408e-13
2.338108095675144e-13
3.6592671090174227e-13
5.565107217142466e-13
8.219726624957176e-13
1.1784180590468461e-12
1.6394688308179666e-12
2.2150085337740855e-12
2.914228719259726e-12
3.7602650178392974e-12
4.830820485326733e-12
6.3514309764817736e-12
8.888186472879111e-12
1.3718748302921691e-11
2.351085433675199e-11
4.351869178885862e-11
8.364642515127138e-11
1.619827846001498e-10
3.108990674785038e-10
5.877460920242461e-10
1.0939563238747404e-09
2.0095098798306016e-09
3.6549474499081396e-09
6.601020996876759e-09
1.1856701357614115e-08
2.1178221335423367e-08
3.755119440457811e-08
6.589720508451962e-08
1.1403489583373502e-07
1.9387207048572582e-07
3.2271399349474373e-07
5.244541771694821e-07
8.303054466450987e-07
1.2787031203229663e-06
1.9141668137378873e-06
2.785333582350076e-06
3.943096070109112e-06
5.4406753713509715e-06
7.338210913820685e-06
9.714554193321725e-06
1.2687846093090573e-05
1.6443767287606866e-05
2.1266214639598063e-05
2.756046605902604e-05
3.585530448821555e-05
4.677011912206312e-05
6.093737769304024e-05
7.888050919361889e-05
0.0001008606765540266
0.0001267197253597613
0.00015575619844095112
0.0001866725063750971
0.00021762198562598925
0.0002463656814069806
0.000270524486235588
0.00028788898944956387
0.0002967333464865075
0.0002960750565659048
0.00028583101346516313
0.0002668395612686425
0.00024074405217863306
0.0002097598569607871
0.00017636829922389026
0.00014299313728529455
0.00011171559271933673
8.407269178805726e-05
6.09637053294918e-05
4.266575483845497e-05
2.8938096571212883e-05
1.9180288773912368e-05
1.2605125421761334e-05
8.392532102208925e-06
5.8025207486712145e-06
4.239377576508039e-06
3.271380672512548e-06
2.6179251056447927e-06
2.1183876393973013e-06
1.6954372960058884e-06
1.3216395336623799e-06
9.939111596636425e-07
7.16878789490307e-07
4.939779276655994e-07
3.2414815548916706e-07
2.0189127221793578e-07
1.1886786134129732e-07
6.579457654731529e-08
3.396575707297695e-08
1.6156830279314996e-08
6.943319509332304e-09
2.602433828179496e-09
7.913907897272386e-10
1.616598653555283e-10
9.814828369313625e-12
1.0208476081985031e-11
3.530072121757846e-11
4.8455544757915913e-11
4.742734660189651e-11
3.8684439361268314e-11
2.8059157432923403e-11
1.8727218886345523e-11
1.1741765459402781e-11
7.011608754635007e-12
4.025572907274587e-12
2.2363971400735625e-12
1.2071022852287213e-12
6.343973984390349e-13
3.2488084295893054e-13
1.6207341675676929e-13
7.868999309890581e-14
3.7134569230270795e-14
1.700719445707315e-14
7.546982022681082e-15
3.2389795023165336e-15
1.3412967537406146e-15
5.341871506955395e-16
2.0380518466802685e-16
7.435845084709725e-17
2.604245084595543e-17
8.738759305823406e-18
2.676518551586622e-18
7.189281435291161e-19
1.971069453273443e-18
1.0810859813194961e-18
4.087148570393714e-19
9.218976572006205e-20
4.963736810128171e-19
1.4165366491139614e-18
2.470744483920454e-18
4.736155489852846e-18
1.2377434408112008e-17
3.3757341749408417e-17
8.468185486324777e-17
1.9907221969602282e-16
4.520622689796507e-16
9.996207996915452e-16
2.1405732301040833e-15
4.404660562903426e-15
8.640976937391407e-15
1.599212529094065e-14
2.7472807219282233e-14
4.2692411760564036e-14
5.740160463388758e-14
6.100245620134187e-14
4.0291799342410966e-14
9.094048581130948e-15
1.1254490243700896e-13
9.094829106151898e-13
4.0267071040626445e-12
1.351227126545847e-11
3.839983488164407e-11
9.726360324639769e-11
2.2600409896203496e-10
4.910483145767733e-10
1.012176928124131e-09
2.0033671882283847e-09
3.847986074092768e-09
7.238522320803906e-09
1.343297156409752e-08
2.471069342303632e-08
4.5146237281831266e-08
8.184761539538114e-08
1.4680109723227809e-07
2.5939434714467316e-07
4.4952658975866564e-07
7.609646193011106e-07
1.2543314801420136e-06
2.008941917947363e-06
3.1227520836729337e-06
4.710008776136991e-06
6.896634064535452e-06
9.813680096764476e-06
1.3589068497999897e-05
1.8337302266964785e-05
2.4146374107949245e-05
3.106148376245945e-05
3.9067021025698994e-05
4.807133126619258e-05
5.790164262132172e-05
6.831702440473491e-05
7.904359857671929e-05
8.982844365956638e-05
0.00010049915451799181
0.00011100906318279371
0.00012144776913501587
0.00013200462397583145
0.00014288731463891008
0.00015421370492512337
0.0001659065583994463
0.00017762313985361747
0.00018874385450432857
0.00019842863749237126
0.0002057318408392502
0.00020975139861733943
0.00020978012272314495
0.00020542759414041807
0.0001966892115108956
0.00018395167981259954
0.00016793798958831461
0.00014960647721458392
0.0001300256166860883
0.00011024788215419112
9.120278804368262e-05
7.362254008641132e-05
5.800562582104396e-05
4.461611819452377e-05
3.351094081030066e-05
2.4584556819957432e-05
1.7620415337470905e-05
1.234035039111846e-05
8.44603572988598e-06
5.649650650878089e-06
3.6934558531799468e-06
2.3596936723593948e-06
1.4730873345425243e-06
8.983837691365017e-07
5.351061701823993e-07
3.111879560539786e-07
1.7662367504380422e-07
9.78001176500584e-08
5.280882356603819e-08
2.7795523616477196e-08
1.4257010455442732e-08
7.127064972595167e-09
3.475573429205539e-09
1.6578001986402152e-09
7.781187562860323e-10
3.6374823603121485e-10
1.730087721009209e-10
8.64199003859962e-11
4.693474931214521e-11
2.8271465044026238e-11
1.8738109475574512e-11
1.328918905795379e-11
9.786908064716226e-12
7.319914417738876e-12
5.4818250006523905e-12
4.074343693872475e-12
2.98801532689296e-12
2.15373556911213e-12
1.5219325690360712e-12
1.0531248837207437e-12
7.137487381006223e-13
4.746494445530919e-13
3.108219273709102e-13
2.0152998146029294e-13
1.3032200786999069e-13
8.476416920900821e-14
5.591158446793478e-14
3.763177450741512e-14
2.5907178901981584e-14
1.8211405779847653e-14
1.3008425872817398e-14
9.38474272887369e-15
6.799487467565148e-15
4.926238275635094e-15
3.559232752752712e-15
2.5609492421071406e-15
1.8341726258956836e-15
1.3074495402960093e-15
9.273265367169022e-16
6.538020441104959e-16
4.572538219164178e-16
3.1608830654569937e-16
2.148244521960829e-16
1.4251287042507272e-16
9.145233239805642e-17
5.618056800808004e-17
3.271853063806585e-17
1.8045186816170454e-17
9.772616108333294e-18
5.9790193703780246e-18
5.145147608143253e-18
6.135666632809347e-18
8.177257587002708e-18
1.0809735216745444e-17
1.3817270390982994e-17
1.7170744377469787e-17
2.1016373821197288e-17
2.5723615556420428e-17
3.196175281365074e-17
4.072646703402187e-17
5.321101436958192e-17
7.043877614206656e-17
9.26636857390067e-17
1.187018800073059e-16
1.4555526837558865e-16
1.6887490259798298e-16
1.8493112657207598e-16
1.9477779413556322e-16
2.1126483170606576e-16
2.6963837056124168e-16
4.4299226407762726e-16
8.652349492099953e-16
1.7669264306972207e-15
3.5334555734285315e-15
6.800039621049433e-15
1.2602304135333364e-14
2.2601642445175102e-14
3.939652457301485e-14
6.690877204314813e-14
1.1079224820129712e-13
1.7874800239148094e-13
2.8054889291196024e-13
4.274946442936819e-13
6.309729108139443e-13
8.998677424893431e-13
1.2368737633291725e-12
1.6345981482197973e-12
2.0741166992691005e-12
2.53216587471568e-12
3.0096472069931337e-12
3.605529159797596e-12
4.679501470139667e-12
7.178479761487791e-12
1.3254053460110241e-11
2.73845919534323e-11
5.836512895178894e-11
1.2279587988774777e-10
2.511922156472039e-10
4.987450776483633e-10
9.643952639928028e-10
1.8247150470843415e-09
3.3937148778678763e-09
6.226699417877087e-09
1.129590934297179e-08
2.0277124629004767e-08
3.599700568917492e-08
6.309531141274235e-08
1.0894598209472044e-07
1.8484686501528405e-07
3.0742323672530904e-07
5.000997657338763e-07
7.94403947979387e-07
1.230822901392811e-06
1.8590191982589558e-06
2.7374950111206038e-06
3.933307557052292e-06
5.523108574016811e-06
7.597377297262785e-06
1.0269853362924232e-05
1.369339360361674e-05
1.808143057397899e-05
2.373092896314385e-05
3.103884696703054e-05
4.0500898857360364e-05
5.268058768604817e-05
6.813959712885074e-05
8.73283694385163e-05
0.00011044717676246034
0.00013730059045745938
0.0001671780819891765
0.0001987965609311633
0.000230334351772084
0.00025957039908578827
0.0002841203355328971
0.0003017377667910508
0.00031063087156622685
0.00030973631827352864
0.0002988971673365372
0.0002789082254007181
0.000251417600653206
0.00021870129757473576
0.00018335225489945684
0.00014794075699216898
0.00011470621930830696
8.533050940528369e-05
6.0822929414260066e-05
4.152200117812093e-05
2.7195617522506582e-05
1.720457158307685e-05
1.0688193295621036e-05
6.734861522547155e-06
4.511705289688163e-06
3.342441017389527e-06
2.735639805481077e-06
2.3747891439880654e-06
2.085288162520285e-06
1.792725324509503e-06
1.4831654688170829e-06
1.1716072675142917e-06
8.806957658471536e-07
6.289291650636491e-07
4.261102402363008e-07
2.734039725279331e-07
1.6567544019929707e-07
9.4420604704074e-08
5.0292006266975904e-08
2.4798695757069867e-08
1.1156172932898392e-08
4.475284595643914e-09
1.5458708599168781e-09
4.442781982460478e-10
1.24529901449133e-10
7.879743790206327e-11
9.497526729666201e-11
1.0416960536027418e-10
9.592565827085817e-11
7.727101660879228e-11
5.639320031894069e-11
3.817986369095187e-11
2.4367910614372474e-11
1.4827652992185212e-11
8.671272945013397e-12
4.901207442731815e-12
2.6877002632685967e-12
1.4332519247216724e-12
7.44107178511105e-13
3.7623512698492533e-13
1.8521796505228287e-13
8.872391781760899e-14
4.132188303319939e-14
1.8694062218097155e-14
8.206875454154318e-15
3.4924019419674544e-15
1.4390110135225672e-15
5.738078338027965e-16
2.2168340952221405e-16
8.324191971719363e-17
3.047451043507807e-17
1.0977645453825906e-17
4.169003829976668e-18
8.395888652681426e-18
4.124085895299694e-18
1.9820280889291767e-18
1.1824321558382548e-18
1.2454995341403616e-18
1.2899908754267744e-18
8.318515735370781e-19
9.563866486704944e-19
4.24479055901585e-18
1.3790644471721988e-17
3.437544960682425e-17
7.885600728816936e-17
1.8006485739739057e-16
4.082258491631263e-16
8.992445998097314e-16
1.9031193417539007e-15
3.847835032339837e-15
7.36487309047946e-15
1.3126693253873953e-14
2.1227357521193935e-14
2.985965240140258e-14
3.377789399081774e-14
2.597050724819903e-14
1.4279693246263453e-14
8.414973165374171e-14
5.779966149468004e-13
2.5318475429356734e-12
8.622781782333314e-12
2.505130833350249e-11
6.50443826020718e-11
1.551093150037759e-10
3.460210055348812e-10
7.322439212227649e-10
1.4868800631065734e-09
2.925530813418515e-09
5.623322977664283e-09
1.0626543112970016e-08
1.982464005739483e-08
3.657720075275949e-08
6.671423775689367e-08
1.2002711198677088e-07
2.1231439313314572e-07
3.679201167726522e-07
6.225090626348181e-07
1.0256261070156707e-06
1.6424977441102727e-06
2.5546680795118317e-06
3.859437167407387e-06
5.668517354550507e-06
8.106495092579292e-06
1.1309231777284697e-05
1.542121437802972e-05
2.0589589528798332e-05
2.6952193930820484e-05
3.4618327265576156e-05
4.364450457994245e-05
5.4011810506032876e-05
6.56143998867008e-05
7.826768088067212e-05
9.173875341883805e-05
0.00010579228110090452
0.00012023602906422046
0.0001349463986763053
0.00014985838949402403
0.00016491606416242145
0.00017999476571691639
0.00019481910545012562
0.00020890586445375877
0.0002215561485152786
0.0002319079256676698
0.00023904297188072829
0.00024212683675649776
0.0002405513021420734
0.00023404814253375245
0.00022275028572551106
0.00020718905660478343
0.0001882303626998852
0.0001669648515886737
0.00014457464224935213
0.00012220108600796117
0.00010083454572003901
8.123998053625507e-05
6.392339388059381e-05
4.913612664797815e-05
3.6908173824788954e-05
2.709891996309663e-05
1.945379582665941e-05
1.3657577836526647e-05
9.378323064132057e-06
6.299262011516274e-06
4.138666559229696e-06
2.6594567878521013e-06
1.671117947493939e-06
1.026578228403269e-06
6.163293378011352e-07
3.6150912659094637e-07
2.0708913216603983e-07
1.1582048494066709e-07
6.322657410185204e-08
3.3688096279943206e-08
1.752449220260414e-08
8.908713403929388e-09
4.434887528771045e-09
2.1705512109808417e-09
1.0517445029240683e-09
5.10305770802465e-10
2.5208193655723544e-10
1.2944061853681132e-10
7.050357815188787e-11
4.124046914572069e-11
2.589669331023785e-11
1.7264310588694846e-11
1.2029203529765873e-11
8.627215430803659e-12
6.2862125352484224e-12
4.604244087895585e-12
3.3610433750633814e-12
2.4294751200632866e-12
1.7310619127312634e-12
1.2126985666362822e-12
8.346684256411232e-13
5.649885788999911e-13
3.771327488322543e-13
2.4928399997440517e-13
1.6404733925689178e-13
1.0811803250038936e-13
7.176530617146732e-14
4.817778679958114e-14
3.277630082569599e-14
2.2587160427068732e-14