# vtk DataFile Version 4.1 
COMMENT
ASCII
DATASET STRUCTURED_POINTS 
DIMENSIONS 300 300 1 
ORIGIN 0 0 0
SPACING 0.020943951023931952 0.020943951023931952 0 
POINT_DATA 90000
SCALARS U double 1
LOOKUP_TABLE default
3.747115911815579e-19
1.38971557708714e-19
3.16249164360994e-19
5.575546278098082e-19
7.345526132688738e-19
1.4757115051278375e-18
4.193073579640679e-18
1.1209976622896034e-17
2.7748399495961774e-17
6.773664391839034e-17
1.6643499832444195e-16
4.087584854541403e-16
9.972562500127106e-16
2.415294407098228e-15
5.810571931666351e-15
1.3886743861280644e-14
3.296692614001048e-14
7.77358570012254e-14
1.8202354738528276e-13
4.2304227323734636e-13
9.752232805973737e-13
2.228329546650149e-12
5.043039466200484e-12
1.1295512844011069e-11
2.5017962704096048e-11
5.4743181804177745e-11
1.1822681193519147e-10
2.517515321854979e-10
5.280273901410891e-10
1.0897554400115678e-09
2.210835963909463e-09
4.4046875766321015e-09
8.609794405584183e-09
1.649645204453689e-08
3.095444914213012e-08
5.6835377805937076e-08
1.020279952887784e-07
1.789285525952314e-07
3.063140942401871e-07
5.115181755135368e-07
8.326338898534688e-07
1.3202341299384777e-06
2.0378391451984855e-06
3.0601518343512607e-06
4.4680347353063665e-06
6.339448517000072e-06
8.736210849486143e-06
1.1687478980690158e-05
1.5172175791055931e-05
1.9103864095790173e-05
2.3322388773844672e-05
2.7596482820713218e-05
3.164013793401122e-05
3.5142853274060326e-05
3.7810324060992185e-05
3.940859755096043e-05
3.980237785689282e-05
3.897810295490176e-05
3.704520857599321e-05
3.421425638105901e-05
3.0756915076900784e-05
2.695803208201225e-05
2.3072203144274106e-05
1.9295326701258356e-05
1.575619830589259e-05
1.2526315625615452e-05
9.640414613094761e-06
7.117957756920728e-06
4.977440177704194e-06
3.2398466699481226e-06
1.92268619976217e-06
1.0295843069483113e-06
5.41262109770737e-07
4.1206826004085245e-07
5.732768696889268e-07
9.416133236593495e-07
1.4299687106352587e-06
1.9572669065617344e-06
2.455518586161681e-06
2.873490126706396e-06
3.1774949835505517e-06
3.350288253662499e-06
3.3889741458827026e-06
3.3024873941621098e-06
3.1088643772043825e-06
2.8323438719328518e-06
2.500349318822652e-06
2.14051980809019e-06
1.7780637675214736e-06
1.4337298610422944e-06
1.1226065521087441e-06
8.538095309694035e-07
6.309528411734898e-07
4.531774661181527e-07
3.164585756061823e-07
2.1492976741343372e-07
1.420290588879955e-07
9.135838950447689e-08
5.723015575931001e-08
3.493441083780418e-08
2.0793244000715936e-08
1.2077420930248572e-08
6.852099875183069e-09
3.801711077988931e-09
2.0657200759508104e-09
1.1012591111942676e-09
5.773254570814474e-10
2.9846592299742536e-10
1.5269399716199755e-10
7.762688555929727e-11
3.940503568635302e-11
2.0077554259182363e-11
1.0321843693056472e-11
5.3787012947138805e-12
2.850011561274882e-12
1.5372201787480302e-12
8.42848381233036e-13
4.679883531580653e-13
2.616015772021932e-13
1.4612322987835823e-13
8.085319937018143e-14
4.388701221227821e-14
2.31148726303741e-14
1.1669192049295479e-14
5.573352183290272e-15
2.494796327904537e-15
1.0625427849779251e-15
4.80145649019583e-16
2.9808088509259234e-16
2.7549068708574655e-16
2.942979994868116e-16
3.054690403250081e-16
2.958061299592145e-16
2.681642153909789e-16
2.304518496978152e-16
1.9023274142231854e-16
1.5269646846435356e-16
1.204556055954066e-16
9.415367160197547e-17
7.327244699695209e-17
5.682301229382285e-17
4.380354483351539e-17
3.342412350830285e-17
2.5154664239478446e-17
1.866768670622432e-17
1.3740819161668761e-17
1.016727179264716e-17
7.703040775452766e-18
6.060791478670834e-18
4.944171080869439e-18
4.104569630855023e-18
3.3969331082511447e-18
2.8131508807835793e-18
2.4800462542913494e-18
2.621316276240825e-18
3.494792018046115e-18
5.324069291344318e-18
8.244305416121833e-18
1.2275560026843967e-17
1.7325763533622037e-17
2.3213637341548512e-17
2.9695539307725636e-17
3.648571481297776e-17
4.328241381660814e-17
4.985532634575438e-17
5.630948576379755e-17
6.370624417078794e-17
7.527635426508274e-17
9.848897859250135e-17
1.4824578810451039e-16
2.5148740880606656e-16
4.536101955913589e-16
8.274055540699354e-16
1.4858444554392313e-15
2.600920387222636e-15
4.4316957677534746e-15
7.365119405920279e-15
1.1972255895086445e-14
1.9079398818151346e-14
2.9847718478591676e-14
4.584753149856603e-14
6.910717552914272e-14
1.0211802535950553e-13
1.4779536201630208e-13
2.094392979819846e-13
2.908164586585475e-13
3.9658549401693625e-13
5.333904381828547e-13
7.119935394924956e-13
9.507637771228856e-13
1.2807566037032502e-12
1.7531155771039644e-12
2.4527902686803323e-12
3.5349910607000492e-12
5.338885309060958e-12
8.735857830309106e-12
1.612368602276507e-11
3.4063515678314646e-11
7.982923552514223e-11
1.9676333000648186e-10
4.884843362495095e-10
1.1916252764378958e-09
2.823946369121879e-09
6.4737304597244005e-09
1.4342958669906633e-08
3.0726954919916665e-08
6.371139727765328e-08
1.2799244611410415e-07
2.4936344149515025e-07
4.7152713966528555e-07
8.659203982988379e-07
1.5450778346643587e-06
2.6795825220744174e-06
4.517723207045208e-06
7.40551880237173e-06
1.1802835502471338e-05
1.8289189456697137e-05
2.7551072034655595e-05
4.034211084278062e-05
5.7409077812074863e-05
7.938148925579006e-05
0.00010663051091566968
0.00013911323105330735
0.00017622895991711802
0.0002167218264390391
0.00025866499733498313
0.000299553629871267
0.0003365156799978029
0.0003666245363474243
0.00038727083163733674
0.0003965301980099127
0.00039345620745038416
0.00037823725794303696
0.00035218184165568907
0.0003175324595806539
0.0002771449475583086
0.0002340972158669174
0.00019130227092273175
0.00015119287582993535
0.00011552281085443974
8.529987025037262e-05
6.083712931388484e-05
4.1888639792096224e-05
2.7827045132694517e-05
1.7823220517044737e-05
1.0998557958156659e-05
6.534301112072074e-06
3.7351735490963626e-06
2.0537322393064172e-06
1.0865222589592936e-06
5.537839057281517e-07
2.725362709549326e-07
1.2981643185894406e-07
5.98372067760145e-08
2.647449341976297e-08
1.0987121604567837e-08
4.100359923559264e-09
1.3299089615524597e-09
4.748423795528559e-10
4.0949267517631533e-10
5.550901950620282e-10
6.497521838297753e-10
6.232842148689851e-10
5.054259820529333e-10
3.5638276212570766e-10
2.246945848848752e-10
1.3238607330444579e-10
7.8936621815233e-11
5.2603954993855935e-11
4.0443838557756575e-11
3.3468715452485466e-11
2.741938222681254e-11
2.1281098416204585e-11
1.545365780673047e-11
1.0526748433839041e-11
6.785644204629378e-12
4.185421856838715e-12
2.4986523783882483e-12
1.4585954658031766e-12
8.389651971873542e-13
4.774769354975868e-13
2.691059358717732e-13
1.499692325844779e-13
8.2437322721e-14
4.459946018222728e-14
2.3717298213477994e-14
1.2395630726666771e-14
6.3725957729842855e-15
3.227731785644015e-15
1.6138442035024086e-15
7.981554574229579e-16
3.912268239075249e-16
1.9042490000320855e-16
9.217381088555096e-17
4.4346652258972524e-17
2.1156012047066586e-17
1.0052622890984279e-17
4.8740703602464866e-18
2.436629275476408e-18
1.1275931009432462e-18
1.2374943105746668e-18
6.777926649732471e-19
5.132722454322387e-19
3.2063990601135106e-19
8.651196263743815e-20
2.2420966048457013e-19
1.1414898249597727e-18
3.1018228989771227e-18
7.22156731818404e-18
1.7652849869872854e-17
4.513125251336983e-17
1.1502299535458208e-16
2.890516301369009e-16
7.202195420389955e-16
1.784223614316217e-15
4.3928370248405794e-15
1.0746419754962676e-14
2.6130888904683883e-14
6.315321736523212e-14
1.5160123120174086e-13
3.61155354822037e-13
8.53138188411791e-13
1.9969227969917092e-12
4.627884800389807e-12
1.0609467594114733e-11
2.4035574304394746e-11
5.375193749216447e-11
1.1853016813169136e-10
2.5743953001598234e-10
5.501186525170982e-10
1.1553311390796485e-09
2.382173757857475e-09
4.817489156159085e-09
9.546156533495579e-09
1.851798580233076e-08
3.51341410975398e-08
6.51423406458833e-08
1.1793360870258153e-07
2.0830824123750107e-07
3.5870402050370156e-07
6.017344021706801e-07
9.826569930408485e-07
1.5610967500898774e-06
2.411039414882878e-06
3.6178962208491403e-06
5.271472304181796e-06
7.454107250133048e-06
1.022419605462367e-05
1.359669978667383e-05
1.752386718459463e-05
2.1880747220684477e-05
2.6460587824270363e-05
3.0984356689709534e-05
3.512615951814265e-05
3.855256180594943e-05
4.096963085619069e-05
4.2168233280949876e-05
4.2057109762820795e-05
4.067533328468681e-05
3.8180744447737915e-05
3.481746964847192e-05
3.0871465179092426e-05
2.6626005649882304e-05
2.232795145991129e-05
1.817091406996548e-05
1.4295044215373023e-05
1.0797725822682612e-05
7.747056673322757e-06
5.1912398536817345e-06
3.160835236727236e-06
1.6651511784165294e-06
6.86896035669247e-07
1.7956606464946222e-07
7.023998504543736e-08
2.677256932073104e-07
6.737677009454613e-07
1.1941548491487832e-06
1.7471337492498884e-06
2.267953496102534e-06
2.709839812177258e-06
3.042615853381173e-06
3.250354198450319e-06
3.3290372309015996e-06
3.284584222791122e-06
3.131108829591843e-06
2.8890746293493687e-06
2.583108698528458e-06
2.2394820151458828e-06
1.8835099444795694e-06
1.5372517989815714e-06
1.2178600629062943e-06
9.367820436452578e-07
6.99821071124327e-07
5.078925883431231e-07
3.5820882680015423e-07
2.456066161369131e-07
1.637806410449381e-07
1.0626896436504855e-07
6.712787338856746e-08
4.1306544886572386e-08
2.4778045109616638e-08
1.4501696712184934e-08
8.289367353639708e-09
4.633606318135503e-09
2.5367626449537667e-09
1.362778100217566e-09
7.200515745134938e-10
3.752511603486265e-10
1.9353872412120057e-10
9.917685393835365e-11
5.071831634405788e-11
2.6005413690028026e-11
1.3430843329299096e-11
7.015070726843596e-12
3.7163140479085605e-12
1.9994271761927836e-12
1.0917838258471032e-12
6.034933776311494e-13
3.362086800722741e-13
1.876854346619912e-13
1.0427996255462919e-13
5.724822333571194e-14
3.0830790114000785e-14
1.6189294610510302e-14
8.268740131655794e-15
4.138798440271443e-15
2.0935788528126703e-15
1.1477588831815693e-15
7.450877029075294e-16
5.844833220184472e-16
5.139249685963942e-16
4.651624360131171e-16
4.139479010612611e-16
3.5659697517626453e-16
2.970078889563935e-16
2.4021298416907917e-16
1.8978968286898526e-16
1.4733867339987583e-16
1.1288573754573586e-16
8.553986894346733e-17
6.40734030365727e-17
4.730310831112937e-17
3.427030474238494e-17
2.427089604998573e-17
1.6798678018459504e-17
1.1457594919002589e-17
7.883447384554978e-18
5.699016540193452e-18
4.5108165384513365e-18
3.9417175003900805e-18
3.682989622636129e-18
3.543964015771352e-18
3.479024338362765e-18
3.57981222892691e-18
4.032864502610825e-18
5.055259294717849e-18
6.828862663120436e-18
9.454433702906079e-18
1.2939650871420284e-17
1.7222389446798173e-17
2.2217108847105095e-17
2.786439045408158e-17
3.416814912257754e-17
4.1226811426007774e-17
4.930461845964014e-17
5.904128794136434e-17
7.194910809552769e-17
9.137829228290102e-17
1.2413119456730776e-16
1.828811492431982e-16
2.895468853411201e-16
4.798795663405767e-16
8.098611440585797e-16
1.3652014297638574e-15
2.2762703123389144e-15
3.742017158418395e-15
6.067321519956339e-15
9.718003775847887e-15
1.539550688441498e-14
2.4128473769708405e-14
3.737153661637637e-14
5.709484972170025e-14
8.584577481976706e-14
1.2677305518276722e-13
1.8362976221691456e-13
2.6081478166954976e-13
3.635603949017136e-13
4.98388401559639e-13
6.73872673421089e-13
9.014870669359788e-13
1.1959060886734616e-12
1.5740116358193047e-12
2.05380028948036e-12
2.6635572863257667e-12
3.5013543258577486e-12
4.966356687203158e-12
8.485103884353908e-12
1.8519785421300492e-11
4.765046563703933e-11
1.285899645837161e-10
3.410417413569375e-10
8.68895646111309e-10
2.1168133474027597e-09
4.938354250206099e-09
1.1065176025713624e-08
2.3883962129622867e-08
4.9789291016349695e-08
1.0044759648496383e-07
1.9643165698992282e-07
3.7280238059575687e-07
6.872759894697569e-07
1.2315398755311025e-06
2.1459592478885866e-06
3.637225610203413e-06
5.997339476678527e-06
9.620687217000785e-06
1.5014033134412925e-05
2.27924189429475e-05
3.3652931147105814e-05
4.831894020154529e-05
6.745057891072102e-05
9.152336642260997e-05
0.00012068565221487393
0.00015461549787972845
0.00019240616924064074
0.00023251336134332622
0.00027279368744835813
0.0003106513692140562
0.0003432895258862264
0.00036803793683791604
0.0003827068708219946
0.0003859033527958869
0.0003772472178561925
0.0003574409114467541
0.000328175998729016
0.00029189349693790006
0.00025144535098748803
0.00020972262568297445
0.0001693179494534879
0.00013227601036243725
9.996150748229729e-05
7.304639622242231e-05
5.15948988237836e-05
3.5210598335040595e-05
2.320656961076262e-05
1.4765271226777666e-05
9.06614979215764e-06
5.371451151355687e-06
3.0712921438332455e-06
1.6958481855942842e-06
9.053197860540273e-07
4.679995402453251e-07
2.345711529216747e-07
1.1396112575816436e-07
5.3486227494336736e-08
2.4114381925416535e-08
1.0460725759597837e-08
4.559928940149335e-09
2.310544095143508e-09
1.604637807320771e-09
1.3977071162447625e-09
1.2386993753371635e-09
1.0024070446478186e-09
7.158357882227671e-10
4.4627153008474635e-10
2.4227756715470197e-10
1.1685771690712477e-10
5.588857663583275e-11
3.4638746224148765e-11
3.092572259778535e-11
3.091548533902299e-11
2.8891772130959702e-11
2.424898107906366e-11
1.8398636722396565e-11
1.2827442125969994e-11
8.36465634360188e-12
5.192758140535026e-12
3.1218036407486856e-12
1.844885346636182e-12
1.0832034227754525e-12
6.348236701047638e-13
3.7097358693574966e-13
2.151709750310409e-13
1.2320342791611133e-13
6.934406403979346e-14
3.8278640660290715e-14
2.071752304020805e-14
1.1007791647846533e-14
5.7546747604801126e-15
2.968048333196532e-15
1.5143377193444364e-15
7.661554116008371e-16
3.8510174072575624e-16
1.925330358821493e-16
9.577666677853355e-17
4.743138071971711e-17
2.3455791274032388e-17
1.1630995445322058e-17
5.730829191257801e-18
2.7118891140012624e-18
3.4160494720863436e-18
1.8301515767380164e-18
9.941423011967008e-19
4.1563634331794863e-19
8.36148972072517e-20
1.51389153366679e-19
5.202433739367262e-19
9.243855424171876e-19
1.6439965190296052e-18
4.211324427462405e-18
1.1879059683991405e-17
3.1545525900931725e-17
8.094295539225143e-17
2.0703028876902617e-16
5.287485604400356e-16
1.341301158172747e-15
3.3794259552250542e-15
8.474076960494078e-15
2.1153990632035324e-14
5.249955465632665e-14
1.2934961570344837e-13
3.1611629146691164e-13
7.658598045762593e-13
1.8380986686992704e-12
4.366048587567936e-12
1.0251955939981513e-11
2.3767613172315943e-11
5.433549777584486e-11
1.2234025423527066e-10
2.7097257986803084e-10
5.897263498889531e-10
1.2596866455485304e-09
2.638149135027018e-09
5.4115313494369856e-09
1.0861875906799746e-08
2.1313369390061503e-08
4.0848636634116843e-08
7.640313350459834e-08
1.3934623111765147e-07
2.476183854180311e-07
4.2838818630649254e-07
7.209958382853294e-07
1.1796519928598054e-06
1.8749916304146095e-06
2.8932290338162326e-06
4.331475131505837e-06
6.287960792565768e-06
8.846640236932465e-06
1.2056994123072895e-05
1.591165980992599e-05
2.0326357297365497e-05
2.5127791707807953e-05
3.0055082972448698e-05
3.477832469943535e-05
3.8934173808138336e-05
4.2173703385204e-05
4.4213516181301734e-05
4.4878919563039145e-05
4.412896888762367e-05
4.205750850769657e-05
3.887078038104478e-05
3.484853519031437e-05
3.0299529380792687e-05
2.5522376814625608e-05
2.0779102067013924e-05
1.6283138970840884e-05
1.2198411354101556e-05
8.64355978221335e-06
5.695994090673638e-06
3.39334386678577e-06
1.7331942157291065e-06
6.739812596873103e-07
1.3979319493896903e-07
2.999586661921396e-08
2.322838508235823e-07
6.361984124654881e-07
1.1440144929103525e-06
1.677044141243795e-06
2.1771267220067873e-06
2.604551905768214e-06
2.9343496162547384e-06
3.152698328876495e-06
3.2544446844457617e-06
3.2418437217009313e-06
3.1239978374552342e-06
2.9162667470041578e-06
2.6390986280365274e-06
2.3161167871195364e-06
1.9716808010255552e-06
1.6283774763323609e-06
1.3049313970447812e-06
1.0148899930158692e-06
7.66216319839757e-07
5.6170331152832e-07
3.999704186473441e-07
2.767432164214341e-07
1.861399367280511e-07
1.2176602021220396e-07
7.751346427349964e-08
4.8047426300488713e-08
2.9022113501218647e-08
1.709767374334105e-08
9.834508603875668e-09
5.530063029181327e-09
3.044689965743607e-09
1.6444192812245699e-09
8.732437635265715e-10
4.57205640514799e-10
2.3678890834751924e-10
1.2176602160538654e-10
6.243635026987412e-11
3.206595005998548e-11
1.6568631801215544e-11
8.648170398730733e-12
4.5743664760789776e-12
2.456401255298595e-12
1.3393583606397485e-12
7.403126464043045e-13
4.1345699457807865e-13
2.3225433591160055e-13
1.3053352159946597e-13
7.301315896308929e-14
4.046594425796028e-14
2.2175969990825478e-14
1.2048201799869884e-14
6.56284064311539e-15
3.673005742808859e-15
2.1928789489256334e-15
1.446862756765586e-15
1.0621110421830596e-15
8.429836893036359e-16
6.943451242726919e-16
5.750783376261095e-16
4.707078562471027e-16
3.781179047488125e-16
2.977468753384385e-16
2.30171473484728e-16
1.7505231156555413e-16
1.3117199707208687e-16
9.683687428779402e-17
7.027898419105361e-17
4.992099868417442e-17
3.448904190871679e-17
2.3010802221053758e-17
1.474884065704236e-17
9.11307003903758e-18
5.584483222777983e-18
3.669482880406016e-18
2.8917367412721508e-18
2.816704359993173e-18
3.0942265268559636e-18
3.4991866732167266e-18
3.951269641667516e-18
4.502484416558373e-18
5.293154843074688e-18
6.489380287707138e-18
8.222966539782186e-18
1.0555271295096445e-17
1.3478640580547482e-17
1.6955540901975027e-17
2.0981201151613607e-17
2.5647219401370772e-17
3.1187664495791155e-17
3.800980155868858e-17
4.6747813666065737e-17
5.842188908835393e-17
7.482198029098768e-17
9.924794825261872e-17
1.3771549669734344e-16
2.006922931203864e-16
3.054107125441408e-16
4.789076434602884e-16
7.622955569560933e-16
1.2174904601595411e-15
1.9387429330873605e-15
3.072685331775177e-15
4.8517997325168415e-15
7.6465246378661e-15
1.2039803124756625e-14
1.8924067746707438e-14
2.9614513394033764e-14
4.59653887790623e-14
7.04709051232262e-14
1.0633321223023702e-13
1.574895062735095e-13
2.2860552845841085e-13
3.2504677004479415e-13
4.5279240096147963e-13
6.180946442251912e-13
8.263359908609443e-13
1.0790123279789611e-12
1.3674508056590084e-12
1.6632178953013054e-12
1.9124045970629386e-12
2.0647319237838867e-12
2.2333193934187274e-12
3.2404051973037628e-12
8.1680425337854e-12
2.6315544170541073e-11
8.256787924386984e-11
2.383138517933444e-10
6.359234961451182e-10
1.5893216861793207e-09
3.7612456693003086e-09
8.497274936928598e-09
1.8432436568197383e-08
3.855278522456027e-08
7.798425193482971e-08
1.5289051116697956e-07
2.9097480526546963e-07
5.381622318041566e-07
9.680271071736137e-07
1.6943340593205514e-06
2.8865708054303816e-06
4.7874613952664115e-06
7.730114317712252e-06
1.215076079327376e-05
1.8591256418653348e-05
2.7684181174142615e-05
4.011322099778452e-05
5.654335977219882e-05
7.751985792799648e-05
0.0001033420792801966
0.00013392708673972821
0.00016868665736099556
0.0002064472479400734
0.00024544259208048844
0.0002834009773953707
0.00031773365619657825
0.0003458096318806021
0.0003652799909629225
0.0003743981067329505
0.0003722760268964165
0.00035902529579316466
0.00033575159501396965
0.0003044021167065841
0.00026749494713982025
0.00022778293750703362
0.0001879147014039645
0.00015015057364237087
0.00011617402181783266
8.70148282458022e-05
6.307626435499256e-05
4.424033775317163e-05
3.001626385934553e-05
1.9697766080283138e-05
1.2502309614066388e-05
7.676342255958887e-06
4.561552344529587e-06
2.6255982338709957e-06
1.4656569333424293e-06
7.946559208591792e-07
4.191188524257617e-07
2.1532470291986273e-07
1.0793695308335962e-07
5.304417958763705e-08
2.5955298509313535e-08
1.314554832427377e-08
7.34461745694133e-09
4.733177579412166e-09
3.403771962529298e-09
2.5080233532895145e-09
1.7569839747282646e-09
1.1145246508024864e-09
6.169021268033948e-10
2.8544161107442307e-10
1.0363457182745194e-10
2.8883114908472478e-11
1.3676614224278044e-11
2.1072256461235484e-11
2.997884429659627e-11
3.269195310921944e-11
2.934064272252509e-11
2.2862778743625238e-11
1.602645787082978e-11
1.0385790830281064e-11
6.377739313124021e-12
3.802225940388728e-12
2.2499666834218397e-12
1.3422758732881797e-12
8.112456010054561e-13
4.940517397140018e-13
2.9996733970809757e-13
1.7969541104299363e-13
1.0545922565689343e-13
6.044153918905226e-14
3.383028673051456e-14
1.8533835088448563e-14
9.972890349562718e-15
5.29131498820239e-15
2.778357512846501e-15
1.448094963949403e-15
7.507468023876681e-16
3.87587741675655e-16
1.9935245126658607e-16
1.0218934600044512e-16
5.224142383808228e-17
2.662549023932251e-17
1.3473905163412989e-17
6.749602496222943e-18
8.438933368710082e-18
4.46233300744775e-18
2.3029250366935153e-18
1.0969478402951561e-18
5.438938645532871e-19
4.389502086817345e-19
4.31296838292312e-19
2.6714176484978244e-19
2.003956565021135e-19
9.440202908189414e-19
3.2715050514486513e-18
8.553787891526693e-18
2.1669771191797184e-17
5.712772211778277e-17
1.5148980989216095e-16
3.9555087194303583e-16
1.0235358331824396e-15
2.646419103462104e-15
6.83512638091801e-15
1.7563991180388925e-14
4.4791212307394274e-14
1.1330502998987981e-13
2.8431967305894694e-13
7.073734589981559e-13
1.7429626602323148e-12
4.2472375537781715e-12
1.0220401658404458e-11
2.4252776263984666e-11
5.667666926492169e-11
1.3026763514215693e-10
2.9411660008498104e-10
6.515363817928279e-10
1.4145089555183708e-09
3.006488044718392e-09
6.249775584013399e-09
1.269426067841455e-08
2.517062362220094e-08
4.867930868527459e-08
9.174668559446366e-08
1.6837306508162663e-07
3.0063508536354515e-07
5.218530122443864e-07
8.799633498558362e-07
1.440348454828096e-06
2.286923546627568e-06
3.5199033187346507e-06
5.248579685660122e-06
7.577885954520076e-06
1.0588680539683947e-05
1.4313533760882198e-05
1.871200788827239e-05
2.3651315070719546e-05
2.889896320514035e-05
3.413281892309303e-05
3.897069723570563e-05
4.3016692704117695e-05
4.5916365683742434e-05
4.740938393094122e-05
4.7367824359727964e-05
4.5811593291009094e-05
4.2898455106551276e-05
3.8892902310690554e-05
3.412311045355308e-05
2.8936761641893274e-05
2.3664363740945952e-05
1.8594197534193238e-05
1.3958411176663222e-05
9.926994222225857e-06
6.606146767952898e-06
4.039243700981183e-06
2.2106577680842514e-06
1.0537240954824342e-06
4.635425656988759e-07
3.1360466649834997e-07
4.734971774456692e-07
8.241959281327684e-07
1.2681171953623052e-06
1.7327976618147075e-06
2.1690218881936314e-06
2.545604175158992e-06
2.8434220671220814e-06
3.0507401355174256e-06
3.160764282779624e-06
3.171248808244469e-06
3.0852407858306007e-06
2.9118479204608516e-06
2.6661814707893914e-06
2.368137528811355e-06
2.0401953531656034e-06
1.7047538428846152e-06
1.3816264998753727e-06
1.0862001343412085e-06
8.285224595575799e-07
6.133220008287662e-07
4.407610762726097e-07
3.0761883013770203e-07
2.0859593498826904e-07
1.3749778143753898e-07
8.815063397782618e-08
5.500137457569731e-08
3.342433102954796e-08
1.980029736478522e-08
1.1445910026898358e-08
6.464549047741616e-09
3.572625826283972e-09
1.9354807520860323e-09
1.0301485020327655e-09
5.400990011021379e-10
2.798215153738155e-10
1.4378863547158352e-10
7.359078382915292e-11
3.7684911223770066e-11
1.9400769499149672e-11
1.0086887598634351e-11
5.3170732864074325e-12
2.8493100515447547e-12
1.5538966572890222e-12
8.617371822373542e-13
4.84716335114217e-13
2.7547147298134673e-13
1.5746745835205835e-13
9.015615806122252e-14
5.1548971654176456e-14
2.942416215502698e-14
1.682981273601236e-14
9.73880281689089e-15
5.794080040847298e-15
3.6157219024323224e-15
2.404695153578402e-15
1.7087234193764341e-15
1.280519623274525e-15
9.910166984626681e-16
7.765826594131058e-16
6.076874119758225e-16
4.711160137166754e-16
3.6054752942597734e-16
2.720664690471804e-16
2.0237345732164184e-16
1.4830934350562784e-16
1.0689780813612914e-16
7.550294300872506e-17
5.193617109771622e-17
3.447401501011199e-17
2.1803719381964197e-17
1.2929537642367618e-17
7.07068412937296e-18
3.5745506137519966e-18
1.8601802416771272e-18
1.3977175351350343e-18
1.719720171460165e-18
2.4512931473539044e-18
3.340641996040187e-18
4.272224220361806e-18
5.251738597115848e-18
6.3636916305328685e-18
7.714152829358672e-18
9.378977561993804e-18
1.1377941256936855e-17
1.368723837992244e-17
1.6289143150470392e-17
1.9243478783541813e-17
2.2757453654852505e-17
2.723437402947824e-17
3.3300742882114555e-17
4.18429756059476e-17
5.4120318197501707e-17
7.204465704223831e-17
9.871503050667001e-17
1.3925801283395505e-16
2.0197046921665737e-16
2.9973990781534e-16
4.51822358697964e-16
6.864103697748822e-16
1.0451383499249724e-15
1.5917897994487953e-15
2.428874512687641e-15
3.7270847676661035e-15
5.773315094461693e-15
9.042171907297104e-15
1.42930141054082e-14
2.2689321655717916e-14
3.593022607638951e-14
5.637701627453915e-14
8.715243911582676e-14
1.3218815518729635e-13
1.9619071401639786e-13
2.8447214605115015e-13
4.0251284478288625e-13
5.549379400842507e-13
7.432420966874712e-13
9.611246157508841e-13
1.1860476490910085e-12
1.3668476350652882e-12
1.4133512318020768e-12
1.213396354955849e-12
7.545380103876576e-13
5.528865760010656e-13
2.8732130316798528e-12
1.4824812376131393e-11
5.5639170656001996e-11
1.7281827410732503e-10
4.763061751045687e-10
1.207867980527927e-09
2.8767216184069756e-09
6.5153499339801575e-09
1.4145386789002646e-08
2.9596905897959436e-08
5.989859799945141e-08
1.1755046883946081e-07
2.2409547368827736e-07
4.154976329393521e-07
7.498656170951371e-07
1.3179604161040621e-06
2.2565983654234208e-06
3.7644053026520132e-06
6.118323320833617e-06
9.687835246963496e-06
1.4942225617217519e-05
2.2444722878181783e-05
3.282666408014943e-05
4.673562044327549e-05
6.475438301867468e-05
8.729313106333777e-05
0.0001144646038812206
0.00014596037831399983
0.00018095326403628868
0.00021805375518629903
0.0002553451111086197
0.00029051091414317306
0.00032105183001832185
0.0003445680256268845
0.00035906528430699455
0.0003632317446477094
0.00035663250895742
0.00033978236694030177
0.000314080154436477
0.00028161621621566483
0.0002448898806328972
0.00020649024606003794
0.00016879708202679114
0.00013374921713785323
0.00010270895947788766
7.642861238439964e-05
5.510498535401119e-05
3.849437733426319e-05
2.60556685904462e-05
1.7092127147708044e-05
1.087072075397812e-05
6.707872458413654e-06
4.019870899579478e-06
2.3427785949992476e-06
1.33011655246883e-06
7.372362973091077e-07
4.000239663191043e-07
2.1340478968364926e-07
1.1282779035659923e-07
6.00066338071557e-08
3.2884968080549593e-08
1.9086428340334358e-08
1.1881684394569649e-08
7.788343605605317e-09
5.1478152232799055e-09
3.2677260730966217e-09
1.9051930613669707e-09
9.745654275339467e-10
4.0938278193980224e-10
1.2247055577897158e-10
1.5485819245326447e-11
1.330779178690665e-12
1.9159975647105293e-11
3.6603127703966364e-11
4.288495228979717e-11
3.9098774049397755e-11
3.0247473672199685e-11
2.0763686917910228e-11
1.3050399992922897e-11
7.73559915642291e-12
4.469235543744492e-12
2.6050911785006106e-12
1.571551276705964e-12
9.857485282439599e-13
6.329721285496816e-13
4.067090943335606e-13
2.567270198372582e-13
1.5757973443288656e-13
9.374786622968936e-14
5.413521677273185e-14
3.046991648856896e-14
1.6808330135056815e-14
9.139686188702911e-15
4.923890203644275e-15
2.6383132308968795e-15
1.4092399939477881e-15
7.5103619649379605e-16
3.9930421876737405e-16
2.1168579127429506e-16
1.1183589479293788e-16
5.883732792400981e-17
3.080494882931329e-17
1.6083432977415923e-17
1.9709356935222787e-17
1.0597392638013748e-17
5.642610330826163e-18
2.990690388026829e-18
1.671405414300241e-18
1.0330060364036275e-18
5.855449662565736e-19
1.7320622343109902e-19
2.850042370027897e-20
3.913732960451748e-19
1.1265127144824954e-18
2.213323330437917e-18
5.2475050278477674e-18
1.5128813039853688e-17
4.249642431823108e-17
1.1282717809077497e-16
2.9696115034490605e-16
7.929744400886635e-16
2.1296181117344113e-15
5.680365991477233e-15
1.4995711362494042e-14
3.9256031017191566e-14
1.0207974652929031e-13
2.635840854056847e-13
6.747083677249159e-13
1.7087441590982824e-12
4.2739691334340415e-12
1.054148581229134e-11
2.5601280890603658e-11
6.113771672591062e-11
1.4337228233721985e-10
3.2974621376755147e-10
7.429129491627654e-10
1.63779561017516e-09
3.529371581700353e-09
7.427281759432711e-09
1.5249538854456585e-08
3.052051501095262e-08
5.949204196397651e-08
1.128462591651532e-07
2.0811829294174988e-07
3.728774582076533e-07
6.484844976919323e-07
1.0938714251666495e-06
1.7882886839095374e-06
2.831433602764652e-06
4.339020754182442e-06
6.431967080178387e-06
9.218225076265137e-06
1.2768032789230187e-05
1.7085766415424014e-05
2.2084074811370946e-05
2.7567606617313627e-05
3.3233429663814576e-05
3.869261081545735e-05
4.3512612615149716e-05
4.727438107613874e-05
4.963314302884854e-05
5.0369887993637835e-05
4.942231030658617e-05
4.68892300459467e-05
4.3009400115454726e-05
3.8121676020894635e-05
3.261673457691451e-05
2.689017150717262e-05
2.130374028351295e-05
1.6157558287600463e-05
1.1673099332857156e-05
7.98557531700022e-06
5.14454855966291e-06
3.122227279064762e-06
1.828859896304078e-06
1.13364543525341e-06
8.881230479710289e-07
9.480117682415928e-07
1.1896619419642159e-06
1.5187499145490774e-06
1.8710502351852334e-06
2.2071912266820927e-06
2.5045038618238025e-06
2.7491117915137235e-06
2.9304739862982877e-06
3.039191624875366e-06
3.0675923691631638e-06
3.0118056126399873e-06
2.873872660003886e-06
2.662785799763403e-06
2.393971234094716e-06
2.087355687573184e-06
1.7645900858889195e-06
1.4461634508948708e-06
1.1490494478618199e-06
8.852785834846078e-07
6.615336280133308e-07
4.796183782542463e-07
3.375033590251468e-07
2.3061541193813583e-07
1.5308742820006166e-07
9.87804478439787e-08
6.199453933973318e-08
3.787011841112782e-08
2.2535124142042955e-08
1.3075721178755383e-08
7.40655631158276e-09
4.101248730666121e-09
2.2238038544409665e-09
1.1831688079101013e-09
6.19224644025836e-10
3.197501827996889e-10
1.6349545026395566e-10
8.313543944671998e-11
4.224541075694192e-11
2.1568770351670125e-11
1.1125879100286887e-11
5.828406790102514e-12
3.1133940201705147e-12
1.6996272463464748e-12
9.481647324723934e-13
5.393003240255064e-13
3.115231544062044e-13
1.8191520822428593e-13
1.0694454951379322e-13
6.312399492170743e-14
3.740005822697401e-14
2.231039013036493e-14
1.3490597646607307e-14
8.3515768615488e-15
5.3511974527845886e-15
3.576706231505855e-15