# vtk DataFile Version 4.1 
COMMENT
ASCII
DATASET STRUCTURED_POINTS 
DIMENSIONS 300 300 1 
ORIGIN 0 0 0
SPACING 0.020943951023931952 0.020943951023931952 0 
POINT_DATA 90000
SCALARS U double 1
LOOKUP_TABLE default
6.18439316311255e-19
1.830108413149425e-19
7.710742273711064e-19
2.6988557308568164e-18
5.943899941848397e-18
1.126405614249308e-17
2.1355567833128855e-17
4.150714392474077e-17
8.18624227545727e-17
1.672502788668497e-16
3.6716743041921486e-16
8.76024212775479e-16
2.2176403935850184e-15
5.741729557298111e-15
1.4763099095958103e-14
3.7038860098266064e-14
8.991566218365978e-14
2.1063922743976746e-13
4.764193672896816e-13
1.0426279395350353e-12
2.2141804703348734e-12
4.576342005878458e-12
9.228485269485258e-12
1.81883286609242e-11
3.5064120442609734e-11
6.612916323557597e-11
1.21993059342263e-10
2.202104682298046e-10
3.895706173682636e-10
6.778262436004482e-10
1.1668606729950075e-09
2.003584617292141e-09
3.461944469009466e-09
6.0612391101788245e-09
1.0776419657559935e-08
1.9381980847311192e-08
3.4964179196104197e-08
6.260843379941946e-08
1.1021923491357209e-07
1.8937619121364312e-07
3.1611541144116406e-07
5.116144383647569e-07
8.0300873244044e-07
1.2249786992290445e-06
1.8232082570401284e-06
2.661085883972188e-06
3.830767290938897e-06
5.468655426200041e-06
7.773401024406877e-06
1.1021964710966322e-05
1.5576779827938862e-05
2.1875556173135263e-05
3.0395737842990034e-05
4.158877236030674e-05
5.578532646083089e-05
7.308083449671195e-05
9.321990095291303e-05
0.00011550590171618594
0.00013876585634267337
0.00016139747641208128
0.0001815133964313869
0.00019717730032065708
0.0002067014229764147
0.00020895129859046268
0.00020358985929816464
0.00019119611231584977
0.0001732163052291054
0.00015174383962421277
0.00012916800864909932
0.00010776741688343274
8.933974880731006e-05
7.494967466587258e-05
6.484404675176236e-05
5.853870684479826e-05
5.5038395278140606e-05
5.312302056842578e-05
5.16266446713574e-05
4.964915073076367e-05
4.666761255434503e-05
4.254486533684505e-05
3.7457522885116957e-05
3.1779151497632976e-05
2.5955517791537936e-05
2.040058039732426e-05
1.54289473628362e-05
1.122760843982465e-05
7.860190232856527e-06
5.292132269320162e-06
3.424684011340719e-06
2.1280802080270616e-06
1.267989397444123e-06
7.229618723520522e-07
3.933038947051175e-07
2.0331407326164841e-07
9.928084820661769e-08
4.5399464975343745e-08
1.9187578339442906e-08
7.343519924606513e-09
2.4659794466033603e-09
6.997971348419759e-10
1.815080136249527e-10
8.859891085948271e-11
1.0011279261615289e-10
1.137648332834485e-10
1.1014026593269582e-10
9.427305184691914e-11
7.42034547053632e-11
5.520575925142325e-11
3.956361723624677e-11
2.7678178191932333e-11
1.9078147555571535e-11
1.303594552816491e-11
8.860492100780518e-12
5.998139741223112e-12
4.0417479080646255e-12
2.705660168279961e-12
1.7942201691187536e-12
1.1745254920019261e-12
7.56052067554129e-13
4.765624290352757e-13
2.9278651191089227e-13
1.743831977877959e-13
1.0001793184721769e-13
5.475417029900559e-14
2.8253113781507757e-14
1.3483918320842064e-14
5.775597620030428e-15
2.1137677248087384e-15
6.218986941175782e-16
1.844497047118293e-16
1.786332734253589e-16
2.8792256479710816e-16
3.758128392899375e-16
4.0315343549450523e-16
3.764308814118889e-16
3.175851743825425e-16
2.4833877926966733e-16
1.837976898666916e-16
1.3145365381262996e-16
9.282943328548479e-17
6.59401831913669e-17
4.750917397792635e-17
3.4464728976319956e-17
2.4650516497788584e-17
1.6914803672675686e-17
1.0836297768272494e-17
6.335789358157172e-18
3.3559822689482844e-18
1.7028329950657638e-18
1.0577857506774721e-18
1.1095316720008182e-18
1.7254333206179379e-18
3.0870740956494417e-18
5.744347147692514e-18
1.0585312068831552e-17
1.875994097459712e-17
3.162243517953897e-17
5.076259214729372e-17
7.818269880435789e-17
1.1664950927573492e-16
1.7022011448584858e-16
2.4491284475323696e-16
3.494717886196813e-16
4.961544894386405e-16
7.014592145616766e-16
9.86722201804558e-16
1.378619102334401e-15
1.9099275224547067e-15
2.621661542214908e-15
3.569158936505287e-15
4.837176547286337e-15
6.572666948374675e-15
9.048394897215045e-15
1.2774862601142902e-14
1.867997640412731e-14
2.837200908459714e-14
4.4487132189215735e-14
7.109356027397204e-14
1.1407789978814925e-13
1.8137958651616408e-13
2.8288290181770633e-13
4.2976322458556184e-13
6.332003863363055e-13
9.027937310440665e-13
1.2461059058985004e-12
1.6732785385189503e-12
2.216122596219216e-12
2.9824433575243772e-12
4.289085645131575e-12
6.960872963836183e-12
1.2963109290179248e-11
2.667708650742569e-11
5.7365958569600335e-11
1.2375686581477349e-10
2.6223121821678326e-10
5.408978775444054e-10
1.0827927115976212e-09
2.1024346851187234e-09
3.960548910302967e-09
7.241105316959353e-09
1.2851525290053652e-08
2.2139001666965334e-08
3.700109269072631e-08
5.994542439113632e-08
9.402219499588397e-08
1.425201192720674e-07
2.0829594088643165e-07
2.9262542624521744e-07
3.93556562787611e-07
5.039546055073301e-07
6.097830301123713e-07
6.896556402040227e-07
7.172436674621736e-07
6.685507015840017e-07
5.361010623433127e-07
3.5139294900245457e-07
2.1526921326070533e-07
3.3309539653045567e-07
1.0481381260000313e-06
2.8631377683890723e-06
6.438039614597909e-06
1.2552607576172946e-05
2.202724245275868e-05
3.5603834984320934e-05
5.379955244074144e-05
7.675731782362913e-05
0.00010412383046874428
0.000134986114178845
0.00016788930890369256
0.00020094295166812746
0.00023200418132786243
0.00025890951682158746
0.00027971703813058774
0.0002929205243932974
0.00029760558820892107
0.000293531387760867
0.0002811352389784359
0.0002614675803386719
0.0002360700433827063
0.0002068112894097357
0.00017569648615113628
0.00014466875962556596
0.00011542441612954869
8.926577160158474e-05
6.701296542095583e-05
4.898750576896678e-05
3.50666632395348e-05
2.4793073805747993e-05
1.751295666246472e-05
1.2512893510831494e-05
9.129954053319011e-06
6.820773214826487e-06
5.1877883821298e-06
3.971064399371328e-06
3.0194454507288657e-06
2.254898752450408e-06
1.6403705926223041e-06
1.1565131023057846e-06
7.882134509021155e-07
5.19035981637986e-07
3.3061724723297286e-07
2.0427336816388177e-07
1.229330505207297e-07
7.245055041734434e-08
4.2068807538450334e-08
2.420309005477591e-08
1.3848764405088391e-08
7.8858551619051e-09
4.4552518094694165e-09
2.4822354770723882e-09
1.3531549539362545e-09
7.157311060612896e-10
3.6436501765089314e-10
1.771801170973498e-10
8.17021379370554e-11
3.546861858154982e-11
1.4391433090221557e-11
5.4267084956941315e-12
1.9070111486204855e-12
6.466912690223611e-13
2.3816446957607153e-13
1.1464540994259865e-13
7.305443050931242e-14
5.148007509013264e-14
3.5392846467472927e-14
2.2857792544632838e-14
1.3830186724809012e-14
7.890559774741393e-15
4.2777269679278635e-15
2.2192423866263564e-15
1.1086156110755782e-15
5.361222718534677e-16
2.5208449392316796e-16
1.156483739824597e-16
5.187280080070677e-17
2.2706011084800786e-17
9.71547695241692e-18
4.30696059765787e-18
2.2922158144976178e-18
1.3877760818978505e-18
7.834328897686867e-19
1.0622378644918213e-19
5.158872244706459e-19
1.4308616229079038e-18
2.2883974831664422e-18
3.424942906553952e-18
6.138815727994666e-18
1.186780402274308e-17
2.223009604948673e-17
4.25933630178654e-17
9.326276867985755e-17
2.4009022845084904e-16
6.782216375642942e-16
1.9483647123495925e-15
5.45249637778387e-15
1.4603966366205803e-14
3.726768876843856e-14
9.075250927441559e-14
2.1177848773012746e-13
4.761124869105404e-13
1.0370036432577736e-12
2.1999058440075867e-12
4.565697347490069e-12
9.298581566078158e-12
1.8611275615596384e-11
3.661425486759736e-11
7.076265255242773e-11
1.3429771634517496e-10
2.50428861915693e-10
4.597658845328733e-10
8.340875145093683e-10
1.5024805018229784e-09
2.7007324051333604e-09
4.8615942396596224e-09
8.770666935472722e-09
1.581623110579818e-08
2.835463742412608e-08
5.018871377812042e-08
8.71135674929379e-08
1.4743633790473575e-07
2.423627445348011e-07
3.8622609315100723e-07
5.967776968857878e-07
8.961803699344971e-07
1.313864555993405e-06
1.8927951575446615e-06
2.70061502380381e-06
3.846228805980619e-06
5.50048555582505e-06
7.916870968580798e-06
1.1445129035669146e-05
1.652847953306386e-05
2.3674735097291856e-05
3.3394153745270644e-05
4.610279133935758e-05
6.199912444506119e-05
8.093243109179201e-05
0.00010229137693989869
0.00012494713014306815
0.00014728361974810118
0.00016733575898753106
0.0001830345140282454
0.0001925291360343056
0.00019452890397514267
0.00018858872562140997
0.0001752633727067986
0.00015607783791573405
0.00013330288278297898
0.00010957451660773529
8.743881353300444e-05
6.892504233852313e-05
5.524289082614727e-05
4.666555060403858e-05
4.2610535345292314e-05
4.188017301535573e-05
4.298861259623596e-05
4.4490717855853634e-05
4.5240724754334455e-05
4.453786570572365e-05
4.2151175236447955e-05
3.824557690990755e-05
3.324902039589459e-05
2.7703950390923433e-05
2.2138350246326185e-05
1.6977219305321668e-05
1.2500155105521507e-05
8.838856689046933e-06
6.00179126128912e-06
3.911866596851942e-06
2.445279408408438e-06
1.4638521406337726e-06
8.374482782065292e-07
4.563976841961582e-07
2.3585893876581324e-07
1.1479045078381692e-07
5.2061144446110646e-08
2.1627705083731512e-08
7.984156440931103e-09
2.465332977462688e-09
5.485875240898146e-10
5.0334387710138105e-11
1.3103285579988504e-11
7.006875463040454e-11
1.1046920483794206e-10
1.1885530343606855e-10
1.062437696346204e-10
8.527662163140782e-11
6.39715073389599e-11
4.5952118359721825e-11
3.21225829654783e-11
2.2098636443155326e-11
1.5074703680566326e-11
1.0242761612108143e-11
6.94510343221751e-12
4.697635125676618e-12
3.163197426558226e-12
2.1136342876544338e-12
1.3960950345175854e-12
9.077579111005824e-13
5.785152713913859e-13
3.5974132778964975e-13
2.1720999998400242e-13
1.2664021960235184e-13
7.082321274467837e-14
3.7681360282743076e-14
1.888533051926092e-14
8.827807087787483e-15
3.846880456240406e-15
1.6387864920485185e-15
8.203504487942827e-16
6.104496924428381e-16
6.046222056603793e-16
6.208015744132189e-16
5.979006923260136e-16
5.325336221002594e-16
4.423405865768685e-16
3.4706329082193697e-16
2.607323799185425e-16
1.9015468313353517e-16
1.363930473469484e-16
9.715010427505033e-17
6.890927446969626e-17
4.8359783268607814e-17
3.306039890096952e-17
2.152080575423022e-17
1.2953795164111118e-17
6.930480702110028e-18
3.1010807100833807e-18
1.0599415732403114e-18
3.5833416892008055e-19
6.15934581584747e-19
1.6583916393925735e-18
3.614079897238703e-18
6.931869187921375e-18
1.2322221937630422e-17
2.0662518404469068e-17
3.2932131283537834e-17
5.024649983779813e-17
7.404219303426526e-17
1.0643237576805433e-16
1.5071229267619282e-16
2.119538163590535e-16
2.9758914349445085e-16
4.178462028776357e-16
5.858670760388143e-16
8.173398648593331e-16
1.129567516915937e-15
1.5402081986697773e-15
2.0666474434576644e-15
2.7283571021397037e-15
3.556907502327628e-15
4.621623637227618e-15
6.0829159716544636e-15
8.28904162066785e-15
1.1933323578764807e-14
1.8284149708127428e-14
2.948453716743451e-14
4.888622845857723e-14
8.133093257852527e-14
1.3321880680627568e-13
2.1212252277844062e-13
3.256463817144511e-13
4.79267629292661e-13
6.731881153539384e-13
8.99093054753185e-13
1.1398174395218799e-12
1.3795563301768518e-12
1.6418854731945147e-12
2.091954809696622e-12
3.2755037541524043e-12
6.633469448788432e-12
1.5546428150742526e-11
3.7355981229553574e-11
8.711716769148206e-11
1.9429815053746068e-10
4.142926494500902e-10
8.474384251328049e-10
1.6691336137176482e-09
3.1753075513319344e-09
5.847299714617399e-09
1.0438024982998153e-08
1.8075517612614297e-08
3.0368556834547373e-08
4.9480401421300605e-08
7.81107572194524e-08
1.1929711816978076e-07
1.7592582941054964e-07
2.498517758137773e-07
3.4059506542530706e-07
4.437508476348534e-07
5.495449969038068e-07
6.423951724373136e-07
7.028367438388241e-07
7.136039122730842e-07
6.717819478864107e-07
6.084675282394555e-07
6.160138980432995e-07
8.80581086359726e-07
1.714567646575426e-06
3.580220917678975e-06
7.093391188793943e-06
1.2996314266228425e-05
2.2091575137572942e-05
3.513637607462899e-05
5.270605863336411e-05
7.504634347152538e-05
0.00010194186900699602
0.00013263124308274629
0.0001657940539652758
0.0001996233276577221
0.0002319803651912163
0.0002606120508190605
0.0002833981470698685
0.0002985909426498561
0.0003050125418290104
0.00030218418527903245
0.0002903739027924082
0.0002705602883200485
0.00024431948327279906
0.0002136495643811069
0.0001807524684677804
0.00014779900667260545
0.00011670670346134547
8.896106073882867e-05
6.550610928985548e-05
4.671892211546364e-05
3.246684110792716e-05
2.222961341262017e-05
1.525643044779936e-05
1.0723761791447397e-05
7.864773641495906e-06
6.052748239824432e-06
4.834944780558486e-06
3.925250317718168e-06
3.170770219602072e-06
2.508526564975781e-06
1.9250176492131285e-06
1.4259048552509972e-06
1.0177927090215404e-06
7.003714775135694e-07
4.6549693823221264e-07
2.997224918736716e-07
1.8767204753414263e-07
1.1477826640352797e-07
6.887014833888625e-08
4.0697633443962834e-08
2.374097551335427e-08
1.3674722161969156e-08
7.760469951612612e-09
4.320481214074487e-09
2.3458423467645064e-09
1.2337604991888256e-09
6.23923863490212e-10
3.009955188474756e-10
1.3728684989292848e-10
5.855652398734081e-11
2.3015979741918028e-11
8.163948946085299e-12
2.5372908211489618e-12
6.734563798869413e-13
1.7218768194541857e-13
8.244633132812425e-14
7.875722391856435e-14
7.499215137066513e-14
6.121809012715041e-14
4.387720766512368e-14
2.8486979671968047e-14
1.7131147372665484e-14
9.689907750806603e-15
5.2118883231808385e-15
2.6876819442299964e-15
1.3374115004403918e-15
6.455363696267275e-16
3.035531362468505e-16
1.395928985203268e-16
6.306847059872384e-17
2.831022272948513e-17
1.2944116238006544e-17
6.094839915052622e-18
2.6729290403563424e-18
2.713767300946517e-18
1.2844952666256985e-18
1.1721893219527738e-18
1.1969401895657446e-18
8.879919724774466e-19
7.560443963784976e-19
1.6001551877685268e-18
3.4670788579398355e-18
5.722445616738598e-18
8.935996815630527e-18
1.8932920642085573e-17
5.761524604378333e-17
1.969088392617662e-16
6.53545023956032e-16
2.0218576089667178e-15
5.801019626650422e-15
1.5529044567941115e-14
3.9134542950282605e-14
9.371268257134514e-14
2.1519602124634772e-13
4.781210882568032e-13
1.0363710246445702e-12
2.206814358802668e-12
4.637644462326446e-12
9.636750737299983e-12
1.979007717612395e-11
4.0090570137681764e-11
7.995926910553296e-11
1.568475875991057e-10
3.027155376583548e-10
5.758449268200205e-10
1.0825337010832115e-09
2.0165698987289586e-09
3.728948081323604e-09
6.844908062942414e-09
1.2446884834073418e-08
2.2334828228927663e-08
3.935324713754329e-08
6.773526712315985e-08
1.1336936755343977e-07
1.8387874872190306e-07
2.8847600685817214e-07
4.377848825555684e-07
6.442406825807945e-07
9.242333473562073e-07
1.3036431574723912e-06
1.8285028481812412e-06
2.581815398782229e-06
3.7057938265891762e-06
5.426007607903587e-06
8.070608687955095e-06
1.2074914862867217e-05
1.7960397224525934e-05
2.627879732890933e-05
3.751753765675578e-05
5.1971816016480456e-05
6.960063565777343e-05
8.989598852695485e-05
0.00011180274635494638
0.00013372731029144414
0.00015366237257794134
0.00016943247926188437
0.00017903371789751015
0.00018100843033384264
0.00017477288714385706
0.00016081241124002877
0.00014067989361629313
0.00011677745072873543
9.195607686114787e-05
6.901798051340599e-05
5.0234522257241916e-05
3.69894091179062e-05
2.962262508369002e-05
2.74964732979296e-05
2.9248329572301475e-05
3.315238060844637e-05
3.749577554741159e-05
4.088503260558066e-05
4.242929340472899e-05
4.178606532441315e-05
3.909005767586835e-05
3.480789975309989e-05
2.9567859402241933e-05
2.400637385980367e-05
1.8657769765886637e-05
1.3896262237522952e-05
9.92515295166777e-06
6.799697215388424e-06
4.467610263363513e-06
2.8132069840051135e-06
1.695604503660207e-06
9.762978554628673e-07
5.354115435352843e-07
2.7845039490431525e-07
1.3644467898409516e-07
6.237984711070826e-08
2.619561808063629e-08
9.841352087771604e-09
3.151803354422751e-09
7.825048551246942e-10
1.3395571459410758e-10
5.675942571682546e-11
1.0546467587722403e-10
1.4242363031640514e-10
1.459106415083252e-10
1.2720824136182419e-10
1.0032279733747613e-10
7.414736824913906e-11
5.255284821957255e-11
3.6306544753281166e-11
2.4743239404636983e-11
1.6775917296621153e-11
1.1374423528324265e-11
7.728349098346951e-12
5.2585877446979755e-12
3.573432071116621e-12
2.415406394351521e-12
1.6165781561389392e-12
1.0663400926521584e-12
6.901806323345421e-13
4.3649186292118963e-13
2.6864695455104784e-13
1.6026808187735282e-13
9.231203787675525e-14
5.115383021061926e-14
2.7221972469407575e-14
1.3962801058446242e-14
7.029749482077079e-15
3.6480217644628356e-15
2.1257766892965434e-15
1.4888016648140958e-15
1.2168732423124e-15
1.060918041118662e-15
9.219074281293504e-16
7.750200524106729e-16
6.255364957440089e-16
4.858165443397506e-16
3.6533990724043844e-16
2.680708665651083e-16
1.9329992955380865e-16
1.376103979922804e-16
9.672342682543932e-17
6.67233618854098e-17
4.461165503402585e-17
2.8354576170540836e-17
1.665256962256698e-17
8.633182877622364e-18
3.6039596718280345e-18
9.281182551293996e-19
2.2470636014197132e-20
4.337350771242202e-19
1.9307836426265098e-18
4.556599799243249e-18
8.610023887304186e-18
1.4564249968677577e-17
2.2964282839076475e-17
3.436766355708331e-17
4.939445627133579e-17
6.893265227099921e-17
9.450824101041914e-17
1.2878239902193633e-16
1.7608789696287492e-16
2.4286634458657216e-16
3.3781942319391133e-16
4.715486459922042e-16
6.554557669067851e-16
8.997715444122804e-16
1.2108882478429355e-15
1.588865288671642e-15
2.0272767422588857e-15
2.5196796048673483e-15
3.0799676497370666e-15
3.787447189749218e-15
4.87067186936579e-15
6.8449139409199226e-15
1.0713283824063004e-14
1.8226161597613038e-14
3.2162045552382636e-14
5.653993244458596e-14
9.659722929966681e-14
1.582753569120872e-13
2.468742164373685e-13
3.645312161409477e-13
5.06389957246063e-13
6.560329595860076e-13
7.825259719456513e-13
8.453399145531125e-13
8.214811353238802e-13
7.84927642161969e-13
1.0979924429867876e-12
2.827362740147141e-12
8.589542874224644e-12
2.4183547441037703e-11
6.161314095671095e-11
1.4447298863059689e-10
3.172068678627189e-10
6.604521857375468e-10
1.3155067730255254e-09
2.521691137280161e-09
4.670576583308891e-09
8.379866630976536e-09
1.458584600628447e-08
2.464505779729877e-08
4.0421635676742084e-08
6.431609973570017e-08
9.916712824193498e-08
1.4793828273213743e-07
2.1310369111020893e-07
2.9569652856302485e-07
3.941145750991909e-07
5.030178723534679e-07
6.130129954323544e-07
7.122585756335792e-07
7.915371008947586e-07
8.545233939911523e-07
9.346784919693342e-07
1.1191452559584317e-06
1.5780689609709715e-06
2.5950204654703033e-06
4.5911493018226155e-06
8.133231944083673e-06
1.3915062413215697e-05
2.2703743925174886e-05
3.524793201251826e-05
5.215352553204993e-05
7.374209542302057e-05
9.991590986570698e-05
0.00013005790063257413
0.00016299315172254696
0.0001970299180640466
0.00023008428901516754
0.00025987663376829005
0.00028417387258154465
0.0003010427747297551
0.00030907756335521013
0.0003075697282557196
0.0002965971809842608
0.0002770213145536762
0.0002503922637970169
0.00021877376730253899
0.0001845091796950318
0.00014995884778200722
0.0001172448926137006
8.804035665655748e-05
6.343382901212708e-05
4.388774053611127e-05
2.9290639598151615e-05
1.908524912813153e-05
1.2440118026354584e-05
8.427195253182237e-06
6.17186257039892e-06
4.95382003213663e-06
4.252387450547015e-06
3.7434367167669526e-06
3.263782304018738e-06
2.761220494738406e-06
2.245545838540217e-06
1.7501388873429665e-06
1.3076290279739754e-06
9.384831960801393e-07
6.488801738197102e-07
4.337101498698384e-07
2.812982013778833e-07
1.7771759156315168e-07
1.0975810324617197e-07
6.645458275895305e-08
3.951151411885857e-08
2.3072081368892215e-08
1.3210656387186497e-08
7.393374604106932e-09
4.0258552363109534e-09
2.120880329666237e-09
1.0738381943569943e-09
5.184836062328286e-10
2.3642815737111657e-10
1.0049922687040466e-10
3.905348678686685e-11
1.342642742792203e-11
3.831332378565461e-12
7.777851671398776e-13
6.63833989322067e-14
2.6738701286549857e-14
9.257704709126325e-14
1.2386216522410415e-13
1.1553913384917923e-13
8.901730666702625e-14
6.067980842272184e-14
3.7894279602409285e-14
2.2126037646880568e-14
1.2239494887323109e-14
6.474277138505656e-15
3.297958628153825e-15
1.6270537096526707e-15
7.813182064466039e-16
3.669905838166388e-16
1.6959566846395704e-16
7.771323562771522e-17
3.554955814460003e-17
1.6086420905754564e-17
6.8963984609095244e-18
8.817044652250166e-18
4.514652940737766e-18
2.682293075312599e-18
1.453001136969906e-18
4.1134083227273233e-19
1.5781071232978537e-20
5.257292869917861e-19
1.3361420213585855e-18
1.5543623034097503e-18
1.239520074465429e-18
2.408079051618156e-18
1.2237358461509765e-17
5.734405180203208e-17
2.2661349535883114e-16
7.763958589602401e-16
2.369284497390747e-15
6.5916584767326476e-15
1.7030672362912026e-14
4.1467964989494644e-14
9.639655477818624e-14
2.1663608260660196e-13
4.76420735707606e-13
1.03595997906823e-12
2.2423461698833994e-12
4.840710292432856e-12
1.0398536306891601e-11
2.21273563139287e-11
4.6430564729342224e-11
9.577178165493415e-11
1.9395256702698437e-10
3.857873689713343e-10
7.547041823420618e-10
1.4541846562668836e-09
2.762075167627654e-09
5.169662234649275e-09
9.517386780838964e-09
1.7181484283740283e-08
3.029504094816768e-08
5.195060610850189e-08
8.628869370492396e-08
1.3835753078523587e-07
2.136900128430624e-07
3.1775316227508775e-07
4.558293406483339e-07
6.344523128219125e-07
8.660752871643092e-07
1.1788752668567591e-06
1.63309965353721e-06
2.343805994505378e-06
3.507165717170804e-06
5.424058475153294e-06
8.511325871815601e-06
1.3289029195582205e-05
2.0332757799826614e-05
3.0184614350458758e-05
4.322539330210216e-05
5.952288986472685e-05
7.868487256894658e-05
9.975610091458958e-05
0.00012120203826783309
0.0001410132974544986
0.0001569425932404186
0.00016685269212194225
0.00016911728218286685
0.00016298833729262876
0.0001488351559706758
0.0001281790435045533
0.00010349230164650207
7.778986168839135e-05
5.4098755575962524e-05
3.4926113071774644e-05
2.184820327169063e-05
1.531007833779364e-05
1.466825573510023e-05
1.8445950122010104e-05
2.4720855451639678e-05
3.154269708431725e-05
3.7285159592636015e-05
4.086796876898339e-05
4.182721271510038e-05
4.0251658523249336e-05
3.662957337863143e-05
3.166008695546441e-05
2.6077077665714522e-05
2.0517559658479726e-05
1.5447478438267797e-05
1.1141452437504681e-05
7.702616094318059e-06
5.104966815976369e-06
3.2421639051228663e-06
1.97131597772566e-06
1.1456968508710083e-06
6.349501036980252e-07
3.344039661829757e-07
1.665501294401212e-07
7.79061291920275e-08
3.389913966977467e-08
1.3548969748946737e-08
4.9113637777917774e-09
1.6290918287966818e-09
5.621153546296636e-10
2.909359789119312e-10
2.4397632228722606e-10
2.2852602023200587e-10
2.0013756408299218e-10
1.6084721370065424e-10
1.2054600383953927e-10
8.58536962916266e-11
5.908929931924996e-11
3.9869276289650406e-11
2.6690809558171977e-11
1.7893264871532447e-11
1.2081853631180996e-11
8.232389613194983e-12
5.651216402167534e-12
3.891594898262151e-12
2.6733543111694895e-12
1.8214232457435034e-12
1.2242789880803273e-12
8.081357540015845e-13
5.218916374694925e-13
3.287248962968652e-13
2.0146694845029235e-13
1.1996107367359823e-13
6.939870885317297e-14
3.9124715388912703e-14
2.1687050522279664e-14
1.204783969988883e-14
6.931238064158937e-15
4.299836648764109e-15
2.950624235489335e-15
2.216608020855388e-15
1.756520814413922e-15
1.4139423743580264e-15
1.1282410485238933e-15
8.821385215646667e-16
6.736463338998256e-16
5.030913294889802e-16
3.686298612039117e-16
2.658909134616412e-16
1.8912823452193309e-16
1.3250987877432756e-16
9.09866870889053e-17
6.064632325370306e-17
3.867565645892721e-17
2.3114430861497028e-17
1.2560936474883954e-17
5.935351490001019e-18
2.3468848601831215e-18
1.0608969518544754e-18
1.5285593998607666e-18
3.427671116247746e-18
6.669533611021319e-18
1.1350028359763736e-17
1.7655578932054643e-17
2.576581276342447e-17
3.581373120609277e-17
4.796369334977872e-17
6.264564305277617e-17
8.094420008311788e-17
1.0509000451333232e-16
1.3894463698671947e-16
1.8831446342945207e-16
2.608776082874017e-16
3.6547246166083363e-16
5.105025232160019e-16
7.013177264525017e-16
9.36736073641918e-16
1.2055185770821701e-15
1.484786297735128e-15
1.7442370178364029e-15
1.9626270287847285e-15
2.1660733058818237e-15
2.5004689914665e-15
3.3509377504994763e-15
5.516777744892474e-15
1.0436364634992659e-14
2.0427524152122715e-14
3.8859625453177084e-14
7.010163483517606e-14
1.1900120815609566e-13
1.895666343399721e-13
2.8250357933096623e-13
3.914253635663463e-13
4.981553457763844e-13
5.690456366280904e-13
5.575253760149255e-13
4.2474125692205106e-13
2.0290365715766123e-13
1.494059037035136e-13
1.0814044595872462e-12
5.051998333546534e-12
1.6647899049738995e-11
4.5379269792554516e-11
1.0992729963366843e-10
2.4544939858228877e-10
5.157408428257204e-10
1.0327994963265056e-09
1.9871223217979098e-09
3.6925747294522476e-09
6.649308814026211e-09
1.1625959146545059e-08
1.9756838224811078e-08
3.2639653277330245e-08
5.2403699259672175e-08
8.169914969504144e-08
1.235410218066598e-07
1.8093952013868633e-07
2.5628286365788014e-07
3.50537099265304e-07
4.6251714141552196e-07
5.887770094638584e-07
7.250417467783624e-07
8.704764076199997e-07
1.0363022396870048e-06
1.2601045650840394e-06
1.6263901388431402e-06
2.2923768415216482e-06
3.515666301608824e-06
5.677706768588017e-06
9.294510255942092e-06
1.5004936660017711e-05
2.3528020621454342e-05
3.558496097095959e-05
5.178842118553994e-05
7.2510589223124e-05
9.77499574550046e-05
0.00012702247422972894
0.00015930335935605735
0.00019304037372039505
0.00022624827019675765
0.00025667976359596055
0.0002820538973760854
0.0003003114158767066
0.0003098609587115453
0.0003097803486597687
0.0002999432906730788
0.00028105194168114977
0.0002545684061501891
0.00022255186492336863
0.0001874215165584655
0.00015167731797869447
0.00011761863615442659
8.710304211884947e-05
6.138181442872016e-05
4.1035152788899204e-05
2.601091411373102e-05
1.575033874735475e-05
9.368095374813782e-06
5.8463946260794934e-06
4.205594874333274e-06
3.6250560684266133e-06
3.5038233488413966e-06
3.465991999870348e-06
3.3262466923125738e-06
3.0352162512384096e-06
2.6224695967881605e-06
2.1493862516620404e-06
1.6774514017283471e-06
1.2519138516355487e-06
8.973173440158058e-07
6.202430364872532e-07
4.150767585119878e-07
2.699082298792183e-07
1.7107319466015527e-07
1.0594085198677395e-07
6.418971379126627e-08
3.806004071306605e-08
2.2059210673846285e-08
1.2467748699171217e-08
6.84725497621851e-09
3.6371831625969903e-09
1.8580356000348088e-09
9.064068933551017e-10
4.184562233493097e-10
1.805785172761022e-10
7.151313792511393e-11
2.5218064670599635e-11
7.491052637024468e-12
1.6698875124377472e-12
2.321909907808153e-13
1.0681323571271821e-13
2.1412399318664859e-13
2.688533581487859e-13
2.4997433149347314e-13
1.948128231585183e-13
1.3500603059528645e-13
8.587972188316991e-14
5.110948080678147e-14
2.881487905475142e-14
1.5527201534022574e-14
8.051549488747527e-15
4.040280712301148e-15
1.9719103624896025e-15
9.40797176492613e-16
4.411603204879111e-16
2.0446060614527557e-16
9.399885392107669e-17
4.280217868737222e-17
1.9263147221562935e-17
2.455708499522471e-17
1.2278888302988299e-17
6.264489526144481e-18
2.860449877721714e-18
9.52643848325002e-19
3.720113249041902e-19
6.849958504628731e-19
9.778923634825968e-19
6.683182477704163e-19
1.0955581397143116e-19
1.8633028828759598e-19
3.040474781636423e-18
1.9022565517079375e-17
8.688579623697634e-17
3.207831774458324e-16
1.0169769801308854e-15
2.8874248037716673e-15
7.539651477234853e-15
1.8431350929013373e-14
4.283154421378071e-14
9.616596231794534e-14
2.1227923592944675e-13
4.681138457329133e-13
1.0417061282613637e-12
2.342475801121495e-12
5.289560797222443e-12
1.1880212649454938e-11
2.6310825597666293e-11
5.713514672390808e-11
1.2135015795941702e-10
2.520178010955546e-10
5.122208892067921e-10
1.0199288315690797e-09
1.9905556138376162e-09
3.805742055683681e-09
7.115921527089777e-09
1.297645410998058e-08
2.299744064646061e-08
3.9453164913396664e-08
6.525563131854928e-08
1.0367427865177283e-07
1.577319986987002e-07
2.2939407057771894e-07
3.190446923639072e-07
4.263000266390748e-07
5.537965198028942e-07
7.159298351256009e-07
9.542127294308541e-07
1.3596071279839639e-06
2.0997150823280388e-06
3.445318694631479e-06
5.787153279368479e-06
9.631140360620558e-06
1.556002493532617e-05
2.4152822226981886e-05
3.5861515440737565e-05
5.0856771967664233e-05
6.886910692705966e-05
8.906507156606265e-05
0.00011000441387062143
0.00012971850295057726
0.00014592964858599447
0.00015639689839981838
0.00015933388151607
0.00015381049513027846
0.00014003607177319607
0.00011943640054714335
9.448100962092526e-05
6.828009284936821e-05
4.4033730742302e-05
2.4459013010125086e-05
1.1328531667384252e-05
5.223365973451614e-06
5.544997567189545e-06
1.0762635209367944e-05
1.8816228238412156e-05
2.7566523101702247e-05
3.518709548627055e-05
4.0423818342488665e-05
4.2691774045816384e-05
4.202330336060106e-05
3.891196812357297e-05
3.4110117319249195e-05
2.8433405928944552e-05
2.2609577251842426e-05
1.7188412833584967e-05
1.251143982193482e-05
8.727730928817398e-06
5.837038179538862e-06
3.7424121101456304e-06
2.2990424434898593e-06
1.3518675412214223e-06
7.596887944653554e-07
4.071169630856686e-07
2.0748750585609534e-07
1.0024726387444885e-07
4.578338272281946e-08
1.9761410207312458e-08
8.13837022217586e-09
3.316745662112519e-09
1.4615810095660968e-09
7.826983157320473e-10
5.190831449886309e-10
3.8423620629243037e-10
2.878499598449081e-10
2.091531235873213e-10
1.4610276907012398e-10
9.86086717254418e-11
6.496611259336938e-11
4.2296991834570405e-11
2.755609083198225e-11
1.8159155402042586e-11
1.2187894321146585e-11
8.343683609035325e-12
5.804445332562199e-12
4.0740401078894245e-12
2.861181732117146e-12
1.995153255222894e-12
1.3727657894958568e-12
9.276251464887003e-13
6.135979798967812e-13
3.964893602559098e-13
2.500370905277365e-13
1.5394189143494813e-13
9.273545591419577e-14
5.4938864629698795e-14
3.2312189216516154e-14
1.9156355856931663e-14
1.1684430683211288e-14
7.48601577127247e-15