# vtk DataFile Version 4.1 
COMMENT
ASCII
DATASET STRUCTURED_POINTS 
DIMENSIONS 300 300 1 
ORIGIN 0 0 0
SPACING 0.020943951023931952 0.020943951023931952 0 
POINT_DATA 90000
SCALARS U double 1
LOOKUP_TABLE default
1.2019905736662962e-19
3.922328667283699e-19
1.0784405780438931e-18
2.235830050390323e-18
4.356807223821397e-18
8.706755761339335e-18
1.7711396535026107e-17
3.59325621456318e-17
7.233062566883672e-17
1.4469202390308311e-16
2.8774046365469015e-16
5.676445247488246e-16
1.1070513267928018e-15
2.125964259262548e-15
4.0047584213881975e-15
7.378345856973275e-15
1.3282054795820887e-14
2.3406149318639805e-14
4.059891415778413e-14
6.988848134408285e-14
1.2037887564166107e-13
2.08125658060828e-13
3.5899592023772846e-13
6.081524181616121e-13
9.898594846428048e-13
1.5111126362181644e-12
2.111722392481117e-12
2.6383696431933577e-12
2.8969521987515903e-12
2.868461119447609e-12
3.1245976859497344e-12
5.312106654532422e-12
1.2321358376800257e-11
2.7602070589456042e-11
5.3353427770068686e-11
8.822391153923724e-11
1.2648778691220917e-10
1.6155275525572815e-10
1.959511814522188e-10
2.5735075811285637e-10
4.174617790340296e-10
8.127914968348284e-10
1.6800169674420036e-09
3.4519761241356996e-09
7.02021575092205e-09
1.4364428926214315e-08
2.9887550567681804e-08
6.298680757071559e-08
1.3263244007747202e-07
2.749784324399136e-07
5.551902493642105e-07
1.0845564363211923e-06
2.0432965227185765e-06
3.708025362568561e-06
6.4804468194709515e-06
1.091068792490524e-05
1.7705368046852358e-05
2.7708165133703515e-05
4.184080475060815e-05
6.099652404907923e-05
8.588691852948324e-05
0.0001168560243839273
0.00015369003613527687
0.00019546304463945567
0.0002404637416247008
0.00028624126680965094
0.00032978913791066594
0.0003678573511289572
0.00039735100072397773
0.0004157480766155524
0.0004214577532810093
0.0004140481311009566
0.0003942980940528392
0.0003640651740926117
0.00032599997669436345
0.0002831675071256297
0.0002386494180338176
0.00019519671459622393
0.0001549830545215833
0.00011948139230430648
8.945932862684942e-05
6.506766113433973e-05
4.598576293697413e-05
3.158665036807415e-05
2.1091478717753083e-05
1.3694042521376776e-05
8.647092670950856e-06
5.311376146082114e-06
3.174065063270402e-06
1.8456689178472332e-06
1.0443754852374456e-06
5.750840001923957e-07
3.081392605505067e-07
1.6062965482922772e-07
8.143854194240712e-08
4.0137509046660025e-08
1.9217271900958218e-08
8.930150932628392e-09
4.02294607452404e-09
1.7543753508384024e-09
7.39375614552252e-10
3.00619872633811e-10
1.1777838600038665e-10
4.4521234937699484e-11
1.639293139250438e-11
6.078978749035304e-12
2.4753723855605777e-12
1.2675108315862481e-12
8.606110918268225e-13
6.980720184438725e-13
5.99349537039592e-13
5.125750939689303e-13
4.2709861341095075e-13
3.4416476722621724e-13
2.6746884411788313e-13
2.0019135656306618e-13
1.4415731582593679e-13
9.977558313214341e-14
6.630994716966777e-14
4.2277272768348473e-14
2.584715308783759e-14
1.516706622474997e-14
8.580280755811388e-15
4.737481302686469e-15
2.6235280773733667e-15
1.528439729417273e-15
9.901040706868236e-16
7.296883308384642e-16
5.928516133342934e-16
5.029566568712141e-16
4.2755570596296154e-16
3.56580380988978e-16
2.8948644104564977e-16
2.285157112571639e-16
1.7571274747491824e-16
1.3199072098399588e-16
9.715444015627845e-17
7.026024653615792e-17
5.0007343007412476e-17
3.5039807936860997e-17
2.4133126671324494e-17
1.6279936228669046e-17
1.0702899221447794e-17
6.823593298214225e-18
4.212460132709602e-18
2.5390492995604617e-18
1.5349653308573044e-18
9.747208898717606e-19
6.730458091403195e-19
4.922607791736022e-19
3.5110941428723556e-19
2.2740078007562993e-19
1.505510316403661e-19
1.8536607078173403e-19
4.1331049024791393e-19
9.200875815082666e-19
1.797149198710627e-18
3.1594068491294863e-18
5.173095146351118e-18
8.07924861066081e-18
1.2193703084941549e-17
1.7868464926892393e-17
2.5415214514382185e-17
3.502023186422678e-17
4.671710562572476e-17
6.05198230736534e-17
7.684102129274117e-17
9.731592364831124e-17
1.261182164236628e-16
1.718054207839226e-16
2.497137018327614e-16
3.850201906170529e-16
6.169361178364687e-16
1.0052755358214299e-15
1.6421412209140124e-15
2.674147123952403e-15
4.3453708005114656e-15
7.080128541602669e-15
1.1642429545338811e-14
1.9446759190065062e-14
3.317866926102849e-14
5.80728284171328e-14
1.0462248341621073e-13
1.9444152759785177e-13
3.730586244078812e-13
7.377709374284944e-13
1.497576372288849e-12
3.0997396005531658e-12
6.490797558381667e-12
1.3640219312139714e-11
2.855970072309006e-11
5.922368250107409e-11
1.210650455410789e-10
2.431096895586597e-10
4.783334658785086e-10
9.20440719441018e-10
1.7298618780338202e-09
3.1721118124631273e-09
5.671348374615199e-09
9.880476306453087e-09
1.6765838275566288e-08
2.76989290199938e-08
4.4539618888857056e-08
6.968590652277424e-08
1.0605631110847317e-07
1.5696610097222253e-07
2.258620257712998e-07
3.158962610797579e-07
4.293510063043775e-07
5.669684815353919e-07
7.272889558623288e-07
9.061380523583833e-07
1.0964167903413125e-06
1.288318672715398e-06
1.4700220100337982e-06
1.6287930041036362e-06
1.7523150193792623e-06
1.8299754376153652e-06
1.8538385217569595e-06
1.8191377976197237e-06
1.7243232736482373e-06
1.5709361214019994e-06
1.3637525681995134e-06
1.1116265728606997e-06
8.291992468953185e-07
5.391660867538371e-07
2.7426556163930036e-07
7.783652318684958e-08
1.94052221402789e-09
1.0275308766441348e-07
4.340118244829567e-07
1.0403077765597203e-06
1.952353061193406e-06
3.1856802084082564e-06
4.742633027831686e-06
6.615658575734899e-06
8.788786998014357e-06
1.1234597667939678e-05
1.3906044119923855e-05
1.672548892662443e-05
1.957580705865713e-05
2.2299111713106364e-05
2.4706937598764616e-05
2.6602079139025235e-05
2.7808125330341475e-05
2.819971697818776e-05
2.7725840494453878e-05
2.6420264925317406e-05
2.4396765295644596e-05
2.183075095123107e-05
1.893205263671197e-05
1.5915112819888552e-05
1.2972520013259694e-05
1.0256139533154614e-05
7.867735406740042e-06
5.858687727246634e-06
4.236731114666073e-06
2.976824119514548e-06
2.0332724101470637e-06
1.3508368038814975e-06
8.734454672555321e-07
5.500092270790888e-07
3.37516543910384e-07
2.0198243680730666e-07
1.1796145377228299e-07
6.728223402522884e-08
3.750863080530792e-08
2.045408900196109e-08
1.0919576373955477e-08
5.711865250660981e-09
2.930068121902257e-09
1.475357393074011e-09
7.298590428956736e-10
3.550702904691389e-10
1.7003610649568313e-10
8.023069745356245e-11
3.7336422667425566e-11
1.7152669947327556e-11
7.786470324220772e-12
3.4957962223349343e-12
1.5535078554889065e-12
6.838806519983836e-13
2.9843399925469195e-13
1.2917401054384216e-13
5.548529552506874e-14
2.3662373167379537e-14
1.0023841591630917e-14
4.21994421357892e-15
1.7656374428294312e-15
7.33764389068682e-16
3.0282215218299187e-16
1.2447293324524367e-16
5.1244131214088627e-17
2.1026993088489368e-17
8.318323085158003e-18
3.070520656676351e-18
1.2065905964885978e-18
7.057540586977218e-19
4.836845093136914e-19
2.2617090625437894e-19
1.7804768100577794e-20
2.6415265107602566e-19
6.659656465689513e-19
1.105920331465751e-18
1.9720301291310197e-18
4.133470839748484e-18
8.950912868155168e-18
1.8907584451019123e-17
3.9237460548832945e-17
8.09083838596677e-17
1.65981477363532e-16
3.376315832846494e-16
6.786691222083569e-16
1.3442779707952732e-15
2.617484082102464e-15
5.001104183354824e-15
9.371218663664212e-15
1.7242114741134542e-14
3.1241134708867285e-14
5.596198545574375e-14
9.940367936096851e-14
1.7504527356839413e-13
3.0396123061208527e-13
5.150145158951739e-13
8.394982032412638e-13
1.29666187777906e-12
1.8723827577536644e-12
2.508623685053178e-12
3.1431086461353007e-12
3.847633869806376e-12
5.073385255342517e-12
7.892929901837135e-12
1.3961744394911081e-11
2.4848806703611454e-11
4.062967467939135e-11
5.832660192451055e-11
7.168345044911073e-11
7.415179514054124e-11
6.595674226159976e-11
6.354914071198737e-11
1.07196939408338e-10
2.6353213590784827e-10
6.294362382183309e-10
1.3666521393757018e-09
2.8378658997997774e-09
5.9818128233970395e-09
1.316978040457601e-08
2.9946625110724874e-08
6.829020940088017e-08
1.523127611878168e-07
3.2760861455904594e-07
6.755728251256672e-07
1.3337297444036823e-06
2.5221193590656565e-06
4.573834100040808e-06
7.964826558717335e-06
1.3334465575076087e-05
2.148490409081567e-05
3.3345588114360014e-05
4.989091445994523e-05
7.200556504002592e-05
0.00010030373571999474
0.00013492383203329302
0.0001753356150089774
0.00022020709679870297
0.00026737848722523024
0.0003139769404005109
0.00035667936194167
0.0003920963694260163
0.0004172176132606769
0.0004298371062460393
0.00042887462763841974
0.000414527937676207
0.00038822617127464034
0.00035239772062913504
0.0003101043449934203
0.00026461711640615325
0.00021901399901393264
0.00017586437665694554
0.00013703883250804652
0.00010365163682516445
7.611692939028214e-05
5.4282904931096006e-05
3.760306828051883e-05
2.5308123496660258e-05
1.6552594471825573e-05
1.0522710394774244e-05
6.503105600939574e-06
3.907587462710309e-06
2.283162208363659e-06
1.2972603108258172e-06
7.167562062791953e-07
3.8505421068810383e-07
2.010848950041549e-07
1.0204209942968946e-07
5.02888132619723e-08
2.4048755026902994e-08
1.1146246557545136e-08
4.998675391520543e-09
2.163937981581481e-09
9.012026064058147e-10
3.59275577203091e-10
1.3610144196936469e-10
4.847250782692696e-11
1.6017903157848532e-11
4.9018493133054184e-12
1.5216842749694536e-12
6.984109022960359e-13
5.931402005471363e-13
6.171352768622506e-13
6.160827413703424e-13
5.707526522025308e-13
4.955121575072216e-13
4.0770581601983636e-13
3.203099336315279e-13
2.413374234030006e-13
1.7481063962961456e-13
1.2189695461684825e-13
8.190277512737461e-14
5.308003178091774e-14
3.324143337093544e-14
2.0189697605572095e-14
1.19780272690205e-14
7.032166724574313e-15
4.172184151770207e-15
2.5723854800183043e-15
1.6918651155414405e-15
1.1991209948943355e-15
9.047807964716448e-16
7.087127388492525e-16
5.624318960379186e-16
4.447126934130469e-16
3.4715809013662973e-16
2.6649231882914335e-16
2.0094664882009382e-16
1.4887568420705973e-16
1.0843393303581247e-16
7.766020768847237e-17
5.4653278587847305e-17
3.771290825814849e-17
2.5414217922749473e-17
1.6621915964600225e-17
1.0462733093817745e-17
6.275423054816875e-18
3.555028849902674e-18
1.9041010202848922e-18
9.986851221431178e-19
5.715036855155671e-19
4.095884428005677e-19
3.597443347862845e-19
3.3366637266089515e-19
3.0581624670455986e-19
3.010295311757438e-19
3.7411656895804196e-19
5.886209115571447e-19
1.0044077218198925e-18
1.6823518473122514e-18
2.7087113215085493e-18
4.2330574422523004e-18
6.50484270620954e-18
9.889024747820881e-18
1.484499694901693e-17
2.1868306816270623e-17
3.142083392156525e-17
4.390699265650215e-17
5.978086064887554e-17
7.987869307314934e-17
1.0605171096620628e-16
1.421231833243804e-16
1.9512722140293891e-16
2.7674529299791975e-16
4.049110260635751e-16
6.058052399350747e-16
9.170399136649295e-16
1.3938922791405073e-15
2.122226072140893e-15
3.2446555976194136e-15
5.011603002696161e-15
7.87888694145023e-15
1.2695471122525767e-14
2.1076944472389942e-14
3.618562593921433e-14
6.443745576038868e-14
1.1935200752197176e-13
2.3032792351811755e-13
4.625202905028624e-13
9.610717160076956e-13
2.0471119045264874e-12
4.420126094361768e-12
9.571236893573486e-12
2.0599543803886563e-11
4.376982466473031e-11
9.138065195906361e-11
1.8685382310607567e-10
3.734247363338347e-10
7.283933233258078e-10
1.3855075640806989e-09
2.5685143995888065e-09
4.638903057972053e-09
8.159906491969477e-09
1.3976332356854147e-08
2.330521446638228e-08
3.782535756025624e-08
5.974501436772618e-08
9.181767235467939e-08
1.3726902660354795e-07
1.9959759339029054e-07
2.8222131710923634e-07
3.879659826457429e-07
5.184281084098505e-07
6.732900753069616e-07
8.497076529289613e-07
1.0419147136010095e-06
1.241181646690363e-06
1.436213984297672e-06
1.6139901245698138e-06
1.7609326003640681e-06
1.8642213225837545e-06
1.913028978353421e-06
1.8995145567457463e-06
1.8195452870515745e-06
1.6732817083572364e-06
1.4658705854941714e-06
1.2084556332686935e-06
9.194898842670552e-07
6.259624718063839e-07
3.6379495574845407e-07
1.7654807386432595e-07
1.1190492781164217e-07
2.161861322121505e-07
5.281654565409143e-07
1.0742131822612383e-06
1.866774491862232e-06
2.9071175053190874e-06
4.191389416334411e-06
5.717065434906792e-06
7.485886312081536e-06
9.500125172385026e-06
1.1751532947795409e-05
1.4205709811428307e-05
1.6787472034489032e-05
1.937364937139671e-05
2.1798059687851325e-05
2.386968376351627e-05
2.54007193298901e-05
2.6237888339427314e-05
2.6289274788592232e-05
2.5540318605064483e-05
2.405570874099293e-05
2.196761872310159e-05
1.9453837376722045e-05
1.671110471770014e-05
1.3929163382330763e-05
1.126994812386678e-05
8.854497675543163e-06
6.75817638717849e-06
5.013122142687308e-06
3.615782637754714e-06
2.53704130605837e-06
1.7326650337270321e-06
1.1524158978126107e-06
7.469163497855862e-07
4.7203861765872227e-07
2.910811084970184e-07
1.7525965754136546e-07
1.0310826483874645e-07
5.9315974649411285e-08
3.3392591489817705e-08
1.8410797637515685e-08
9.949305799780574e-09
5.274409685235499e-09
2.7452885332067067e-09
1.4041557196640673e-09
7.063861492895228e-10
3.498318901365872e-10
1.7071000410527998e-10
8.215438757494433e-11
3.902639529306615e-11
1.8315349392987966e-11
8.498835455382e-12
3.902384567932664e-12
1.774360975056808e-12
7.994313406132425e-13
3.5711021943668886e-13
1.5824551338925293e-13
6.959441855577975e-14
3.0389232691589354e-14
1.318005189180164e-14
5.678594348228121e-15
2.430638858564905e-15
1.0340272165754318e-15
4.3767107703608335e-16
1.843856958133971e-16
7.701019520851912e-17
3.165610698162815e-17
1.292078770626402e-17
5.513829735131556e-18
2.5362268996158378e-18
1.0607809476118432e-18
2.414646216772811e-19
5.553622645647387e-19
5.689133791802255e-19
5.62646644079597e-19
4.52851086671477e-19
6.999628050694159e-19
1.867560209132726e-18
4.491228205847469e-18
9.703200628053911e-18
2.049905675287255e-17
4.358140964529801e-17
9.26101587906077e-17
1.9491097475592495e-16
4.049100210787944e-16
8.292930182835465e-16
1.6722632355896133e-15
3.3156164824016502e-15
6.459634461861751e-15
1.2370848397689566e-14
2.3316540833319736e-14
4.331148835962311e-14
7.932895000801156e-14
1.4304126574804222e-13
2.5278673782367966e-13
4.346705135510683e-13
7.207443526575836e-13
1.142283963227751e-12
1.7197122453637803e-12
2.4599043489794144e-12
3.3840514063015644e-12
4.6120097461104426e-12
6.4984687767933485e-12
9.735160222105925e-12
1.5228817903235344e-11
2.3541400925748815e-11
3.3890713515460174e-11
4.3220056849706e-11
4.643067953041602e-11
3.8951749173884454e-11
2.1768070405733903e-11
6.8406815378866096e-12
1.8856509876164637e-11
9.009010439176139e-11
2.5201195394182286e-10
5.428454983272909e-10
1.0773326746865505e-09
2.2693351842485903e-09
5.372691259542933e-09
1.3632911760956146e-08
3.454616002928008e-08
8.401122184833466e-08
1.9349940552616198e-07
4.2164513419252206e-07
8.716676778644907e-07
1.7154747101282383e-06
3.223846993854319e-06
5.799541444035354e-06
1.0006560122910788e-05
1.6584813793506892e-05
2.643620043739974e-05
4.056750280808269e-05
5.997936554101615e-05
8.550014125444064e-05
0.00011757819206629416
0.00015606362095777908
0.00020002549473832265
0.00024765739839315514
0.00029631754211072105
0.00034272781391366544
0.0003833222556986426
0.0004146975089966523
0.0004340868036600901
0.0004397653285766906
0.0004313040782241774
0.00040962026401570527
0.00037681691689326653
0.00033584990721547943
0.0002900947604321353
0.00024289994949774479
0.00019720592653617365
0.00015528460980311493
0.00011862115624063033
8.792826592254968e-05
6.326042608137296e-05
4.418491449745037e-05
2.9967502353390426e-05
1.97402107570957e-05
1.2631636669217909e-05
7.853174603067362e-06
4.744231850747753e-06
2.7852277782216696e-06
1.5890787384500135e-06
8.810599352808333e-07
4.7466480060743643e-07
2.4841914764833456e-07
1.262486046904276e-07
6.226539278117479e-08
2.9775069402011782e-08
1.3786933972981034e-08
6.169329053448706e-09
2.659972529873296e-09
1.0999949518457652e-09
4.3308040611818597e-10
1.6032449807186589e-10
5.457752511218646e-11
1.6365853920198954e-11
3.944974817891728e-12
6.335645854029198e-13
1.578670072931931e-13
3.4992425583737124e-13
5.612335658813912e-13
6.569182387679036e-13
6.501089357888402e-13
5.812867884964627e-13
4.848204796182951e-13
3.8345057598172775e-13
2.901675872213567e-13
2.111514649633187e-13
1.482161005664321e-13
1.0058958691922169e-13
6.615653194895162e-14
4.229574880012577e-14
2.6410781999867998e-14
1.6227129682231302e-14
9.919117835092518e-15
6.122511061343253e-15
3.880703466834742e-15
2.5616566355719097e-15
1.7710271068606076e-15
1.2761015264676896e-15
9.466399939104355e-16
7.130429557885008e-16
5.391872863855381e-16
4.0618597010490133e-16
3.034678836649027e-16
2.243055299817496e-16
1.637895802626057e-16
1.1800947700824446e-16
8.37543566502263e-17
5.840009511654873e-17
3.984298902948119e-17
2.6434017744955097e-17
1.6905480333919444e-17
1.0294056219275338e-17
5.867002997462505e-18
3.0579219749520463e-18
1.4171130945396435e-18
5.791643161595698e-19
2.4720351017079097e-19
1.8980003526667308e-19
2.4384064871981247e-19
3.1583857051493223e-19
3.7567753714603326e-19
4.406160213642582e-19
5.524819671549237e-19
7.5566914517643e-19
1.0858559059655919e-18
1.5778004460558658e-18
2.2947687131204747e-18
3.373412097532966e-18
5.069214945906569e-18
7.78308534016642e-18
1.205328576871835e-17
1.851092591959072e-17
2.7820361420479385e-17
4.065209298204928e-17
5.77548432808207e-17
8.019324163231558e-17
1.0978871843598837e-16
1.497439392904421e-16
2.0536163387261655e-16
2.8472427984186197e-16
3.992411760064926e-16
5.641710221611948e-16
7.996753405321457e-16
1.1337277171180334e-15
1.6093586156178767e-15
2.300344865550042e-15
3.3418791209098484e-15
4.987214998696336e-15
7.711844137951794e-15
1.241517025455986e-14
2.0846758624747586e-14
3.658527154621186e-14
6.739537550061603e-14
1.3095420460370895e-13
2.685410753974342e-13
5.768199660305935e-13
1.2790942446245112e-12
2.879270665489025e-12
6.482365508404587e-12
1.4437379341127044e-11
3.1579984308903e-11
6.754736709541331e-11
1.4093190856579155e-10
2.8645468249182053e-10
5.668727471779647e-10
1.091936434473161e-09
2.047250776514975e-09
3.736112644136378e-09
6.63688851942891e-09
1.1476733372076699e-08
1.9318860256079382e-08
3.165475441478509e-08
5.0484775062930375e-08
7.83614611858307e-08
1.1836168859757929e-07
1.7394994719565705e-07
2.486994583795602e-07
3.45854220052676e-07
4.677447574135924e-07
6.151107499407549e-07
7.864269940961412e-07
9.773628756179936e-07
1.1805154151289484e-06
1.3855311391979057e-06
1.579671069355543e-06
1.7487883785508851e-06
1.8786055141207092e-06
1.956128629639552e-06
1.971045914888208e-06
1.9170228596108133e-06
1.7928977607429234e-06
1.603832536054082e-06
1.3624223199387838e-06
1.0895870098381686e-06
8.148127888023758e-07
5.751249428782782e-07
4.12243893062362e-07
3.6783940700329116e-07
4.776157590383605e-07
7.658532684544414e-07
1.2425294154116475e-06
1.9047846635568237e-06
2.7431132388620995e-06
3.7505829196544635e-06
4.931451526777285e-06
6.30476856727332e-06
7.89962331069082e-06
9.741545414436173e-06
1.1833210831978634e-05
1.4135545733284004e-05
1.6556194403983544e-05
1.8950584379221035e-05
2.113705562582787e-05
2.2923147635694252e-05
2.4136780040397994e-05
2.4654827389368832e-05
2.4422675605748434e-05
2.3461105654523987e-05
2.1860187133200954e-05
1.976273984614003e-05
1.7341682937300054e-05
1.477606494957222e-05
1.2229952887714134e-05
9.837045558635619e-06
7.692294959687136e-06
5.8503390856401e-06
4.3294332327825965e-06
3.1189506127740718e-06
2.1884144815074727e-06
1.4963227522475373e-06
9.975660470153878e-07
6.48842744747144e-07
4.119962184299347e-07
2.5555851537014504e-07
1.5496368706687935e-07
9.192251104844055e-08
5.338091941167535e-08
3.0370478610208855e-08
1.6941681619646286e-08
9.273562453725686e-09
4.985113067476268e-09
2.6339102106866823e-09
1.3689520988166319e-09
7.004921184902709e-10
3.5319329981758715e-10
1.7562223756280413e-10
8.619099559238258e-11
4.1783752083514266e-11
2.002398897647839e-11
9.493117896765872e-12
4.455323873832607e-12
2.071264082170244e-12
9.543911735814735e-13
4.360910879667176e-13
1.976928462408944e-13
8.895030145190497e-14
3.9737108559291325e-14
1.7630088873881402e-14
7.770180036310184e-15
3.40307723382115e-15
1.4815712863349928e-15
6.41048744058316e-16
2.753536679904183e-16
1.174255629694364e-16
5.0036629182473946e-17
2.151850190720786e-17
9.193261549669593e-18
3.617625574437018e-18
1.230927783307268e-18
2.881286729527536e-18
1.5705669640231457e-18
6.739671983556531e-19
8.414048777233468e-20
1.6765326585578503e-19
9.959701920969892e-19
2.406113210966632e-18
4.822186525799762e-18
1.014627242484238e-17
2.2536405941706485e-17
5.0092149697787466e-17
1.0934779553316907e-16
2.3496116775358625e-16
4.982923377117216e-16
1.0421446058390052e-15
2.1456894293234883e-15
4.344562513955216e-15
8.648918499975702e-15
1.693063806401955e-14
3.2589396839444085e-14
6.163798217556286e-14
1.1431478533738938e-13
2.0713435413210677e-13
3.648346367615048e-13
6.210974845127416e-13
1.0168994978992443e-12
1.5973109898625847e-12
2.412753449927779e-12
3.537428334959542e-12
5.117360415155686e-12
7.438269577929994e-12
1.0950098750448636e-11
1.6123209131204923e-11
2.301649375076667e-11
3.061136794046264e-11
3.6329170429392427e-11
3.650433812081889e-11
2.849195748118635e-11
1.4130451173115372e-11
2.5914937886221223e-12
9.333285671619352e-12
4.8827465023871836e-11
1.237989072066183e-10
2.2398856170099042e-10
3.641029533589944e-10
7.181534277286713e-10
1.9581207489822122e-09
6.001268768304025e-09
1.7540980876077553e-08
4.700155287957607e-08
1.1590759385079217e-07
2.660220022845844e-07
5.738215231868861e-07
1.1716816574219768e-06
2.276192175081352e-06
4.2219937310838925e-06
7.496275658473078e-06
1.2764890109737021e-05
2.0876849752633596e-05
3.2831426969734563e-05
4.969325797362507e-05
7.244765731639392e-05
0.00010180144286298353
0.00013795244662549223
0.00018036939298332144
0.00022763675434339756
0.00027742006029257373
0.00032659176388746483
0.00037152671151036
0.0004085358590693468
0.00043436809162702256
0.0004466850962824243
0.0004444123661354162
0.0004278929379651408
0.00039881362425223815
0.0003599241427806735
0.0003146133211048323
0.00026643182230889434
0.00021865237276940143
0.0001739385619858716
0.00013416010659868632
0.00010035666802117245
7.282330404225156e-05
5.127402606317388e-05
3.503671732936878e-05
2.324007052813917e-05
1.4966486565645612e-05
9.359227588195819e-06
5.683991181184165e-06
3.352726364199119e-06
1.9208357101190734e-06
1.0688525501842323e-06
5.776076039993482e-07
3.030683105379882e-07
1.5434149561625952e-07
7.624558469156235e-08
3.650631524819585e-08
1.691962218920671e-08
7.576141657492623e-09
3.2677798845975153e-09
1.351331958089643e-09
5.316384984572619e-10
1.963498704692525e-10
6.643425860888764e-11
1.9601479492957268e-11
4.487987478481448e-12
5.513813485135834e-13
6.377867723548355e-14
3.6044290605277805e-13
6.52647484764875e-13
7.849208359622945e-13
7.820271856965162e-13
6.994257688479519e-13
5.823473965139555e-13
4.598166053786439e-13
3.4781120254066263e-13
2.535231942664426e-13
1.7875215252872453e-13
1.2226672547518474e-13
8.13645005697165e-14
5.2863287758184487e-14
3.36927328281084e-14
2.120494784698042e-14
1.3292948710762985e-14
8.386881155847992e-15
5.3828194577425154e-15
3.544390135323163e-15
2.40369425329793e-15
1.6761381229795462e-15
1.1947964487317154e-15
8.641025197837198e-16
6.296232501896248e-16
4.597015331484692e-16
3.3502747525041256e-16
2.430526702463451e-16
1.7512167921263294e-16
1.25010569143617e-16
8.814606190327659e-17
6.114236902463459e-17
4.149141614271216e-17
2.733712120742709e-17
1.7304069754479396e-17
1.0365969830248551e-17
5.745362084953005e-18
2.8393393938412265e-18
1.1679514807627051e-18
3.425081490171644e-19
5.019283042339845e-20
4.981663382218709e-20
1.7214503413999224e-19
3.1803948656043444e-19
4.493647483209297e-19
5.712367528639226e-19
7.08906159786556e-19
8.868514882815135e-19
1.1196740383167032e-18
1.4227194982614338e-18
1.844681556752501e-18
2.516050020671174e-18
3.69902865114563e-18
5.8203052565282075e-18
9.471339084435406e-18
1.537320996065678e-17
2.4322631048661793e-17
3.715632744571127e-17
5.4783051268883036e-17
7.832572920497195e-17
1.0938406860483786e-16
1.5037303381444265e-16
2.048317406347023e-16
2.7756414935585416e-16
3.745167290407906e-16
5.024770363794662e-16
6.690431528330966e-16
8.838893514942406e-16
1.1630981114606354e-15
1.5391204992954805e-15
2.0796340232177833e-15
2.9194455443351726e-15
4.312598380373603e-15
6.724258236906805e-15
1.1025161193141956e-14
1.898076018669784e-14
3.457381155722245e-14
6.755270833118182e-14
1.4256161632040701e-13
3.214721232194975e-13
7.55327113503522e-13
1.7995840170468646e-12
4.2587648345930045e-12
9.88472893716472e-12
2.235213946673473e-11
4.909627101703652e-11
1.0464692242092803e-10
2.164509645415047e-10
4.3465425700643755e-10
8.478855970797741e-10
1.6076593081939318e-09
2.964394227498519e-09
5.317905702674557e-09
9.28409556473105e-09
1.577689142808365e-08
2.6099784589754865e-08
4.203442250488906e-08
6.590513333293583e-08
1.0058951053707094e-07
1.4943895205151292e-07
2.1607296435219885e-07
3.0402088497532707e-07
4.1620697345846926e-07
5.543091225502568e-07
7.180629017825805e-07
9.046217472342826e-07
1.108108329514928e-06
1.3194897381247106e-06
1.5268743136708137e-06
1.7162653383084638e-06
1.8727324741690211e-06
1.9818989899726107e-06
2.0316114914689492e-06
2.013663425693769e-06
1.9254644542974327e-06
1.7715452744874406e-06
1.5647226291666182e-06
1.326616743134195e-06
1.087070992103953e-06
8.81994299593469e-07
7.493744741239421e-07
7.237711160368632e-07
8.303989069893783e-07
1.0806540847048277e-06
1.4711760869649485e-06
1.9878876910801445e-06
2.6148504390086406e-06
3.345628759416055e-06
4.193037814294683e-06
5.192631858335761e-06
6.396667150905883e-06
7.858353156652956e-06
9.609943177387473e-06
1.1641099840281244e-05
1.3884709197626912e-05
1.621546992832937e-05
1.8462801352378806e-05
2.0435335945001723e-05
2.1951047989287552e-05
2.286592063135887e-05
2.3095069368035426e-05
2.2622737584015255e-05
2.1500527129957723e-05
1.9835718105989957e-05
1.77730683899483e-05
1.5473993592045275e-05
1.3096714129730337e-05
1.0780111272343458e-05
8.63293002971439e-06
6.72882373271238e-06
5.106730642244009e-06
3.7753449094845603e-06
2.7200743688229457e-06
1.9108711830590386e-06
1.3096057237216543e-06
8.76104357801807e-07
5.724523716023642e-07
3.655665121545257e-07
2.2830952204595236e-07
1.395435350730416e-07
8.352766167455443e-08
4.90005588544201e-08
2.8193212972813923e-08
1.592173375547569e-08
8.832295293899299e-09
4.816527966953581e-09
2.5841335786468815e-09
1.3650883494215302e-09
7.105839430115314e-10
3.6477041855594224e-10
1.8480269557964538e-10
9.24714193187846e-11
4.5733195318865004e-11
2.2370718661774867e-11
1.0830161215455458e-11
5.192294617767074e-12
2.4665812312939047e-12
1.1616217163494546e-12
5.425853315052321e-13
2.5146919311779544e-13
1.1568360869614392e-13
5.284039240263199e-14
2.3971394056762167e-14
1.080371443849476e-14
4.838292536486345e-15
2.153072527004604e-15
9.520863031587846e-16
4.1868276492361206e-16
1.834507053117808e-16
8.006405981734536e-17
3.4466673062629345e-17
1.443205376535911e-17
6.0558076609044965e-18
1.1413409520312044e-17
5.079355684404809e-18
1.8333647899568657e-18
4.622133403285569e-19
4.473473292448414e-19
9.852292258913895e-19
1.4191212185085658e-18
2.0912309203599144e-18
4.540700731937077e-18
1.1268213121571482e-17
2.653856782744686e-17
5.973471600454157e-17
1.3238316557503697e-16
2.911186790530357e-16
6.327556306019826e-16
1.354254240102936e-15
2.8502518840285393e-15
5.896946901787018e-15
1.1987995774124248e-14
2.3927178414962705e-14
4.682400842043942e-14
8.964909884609148e-14
1.6742178397617697e-13
3.0385491468072675e-13
5.339128360665366e-13
9.056112411507481e-13
1.4812947912500136e-12
2.3412601206933166e-12
3.595785628690282e-12
5.41001552774984e-12
8.030580168183935e-12
1.1769036936520417e-11
1.686340794832988e-11
2.3158220534827694e-11
2.967951453656278e-11
3.4430167358894336e-11
3.492639540320495e-11
2.98195701613175e-11
2.1153695725576864e-11
1.5612710142309964e-11
2.2415917473766746e-11
4.661685111523542e-11
8.035307142298255e-11
1.0111866727327134e-10
9.558437655054223e-11
1.4333325975360717e-10
6.279761759095884e-10
2.714206442685148e-09
9.36671150499547e-09
2.741679191023708e-08
7.151199068055183e-08
1.711756312820573e-07
3.8254513366378575e-07
8.064371131021023e-07
1.6138837846005965e-06
3.078820519493197e-06
5.614874662658118e-06
9.809210608884728e-06
1.64417063133202e-05
2.64737349698481e-05
4.0989589345628136e-05
6.10774389538483e-05
8.76472694076401e-05
0.00012120025702812208
0.00016158443559616652
0.00020778947973313446
0.0002578416522578915
0.0003088522071872553
0.0003572466157346573
0.00039916182333194134
0.00043095435136071314
0.0004497268144302589
0.0004537665171980528
0.0004428034741200548
0.00041803396510718433
0.0003819088253545282
0.0003377377011984947
0.0002891969286272202
0.0002398406516525515
0.00019270161461000098
0.00015003654501612418
0.0001132322771263553
8.28539373751183e-05
5.879346239996442e-05
4.046831271353983e-05
2.7024720444016433e-05
1.7512509983450544e-05
1.1014047936910572e-05
6.72379157384659e-06
3.984664915516607e-06
2.29246099946263e-06
1.2803927729638903e-06
6.941994807155515e-07
3.653050215101372e-07
1.8652510054695443e-07
9.237195541305528e-08
4.4338082237957895e-08
2.0607014908488816e-08
9.259764076521316e-09
4.013527133196264e-09
1.6719477114488537e-09
6.655593802729981e-10
2.5082281206818777e-10
8.813850624301025e-11
2.8199598357426068e-11
7.991987075455392e-12
2.1155507956855777e-12
8.85890864440044e-13
8.791858130709996e-13
1.024616580944639e-12
1.0672298221468127e-12
9.988530752672085e-13
8.646434726777092e-13
7.064379181360373e-13
5.516038246642465e-13
4.1475200450817475e-13
3.0173875352983465e-13
2.1310359045752352e-13
1.465037271341261e-13
9.8311603147629e-14
6.460866285461922e-14
4.1757993239641464e-14
2.6686786840660133e-14
1.6975329272146053e-14
1.0826653148332311e-14
6.973313652211946e-15
4.561773692938849e-15
3.0403833631243985e-15
2.064783383917774e-15
1.4255331182142713e-15