# vtk DataFile Version 4.1 
COMMENT
ASCII
DATASET STRUCTURED_POINTS 
DIMENSIONS 300 300 1 
ORIGIN 0 0 0
SPACING 0.020943951023931952 0.020943951023931952 0 
POINT_DATA 90000
SCALARS U double 1
LOOKUP_TABLE default
3.30440117336312e-19
7.073732677339026e-19
1.0881045223590543e-18
1.878295558929849e-18
3.8575606168909e-18
8.155525617314439e-18
1.6767851606902652e-17
3.375976627000577e-17
6.716705273622478e-17
1.3190037037487936e-16
2.5458939340284556e-16
4.822516909440326e-16
8.987997550987802e-16
1.6589200784339182e-15
3.060570815676574e-15
5.695352607426187e-15
1.0729481801355048e-14
2.034061855395387e-14
3.819352668526325e-14
6.949562540513905e-14
1.1966742213912644e-13
1.9043854233286092e-13
2.7344068390588417e-13
3.459911444897265e-13
3.828424759591278e-13
4.079718236655051e-13
6.100612317110472e-13
1.5141325221290948e-12
4.1269680194668e-12
9.885808691104726e-12
2.025606256056345e-11
3.616051825269017e-11
5.832396672017354e-11
9.121337685937524e-11
1.5549264909428483e-10
3.1683468381985115e-10
7.435221523056185e-10
1.81472692272469e-09
4.322208909266506e-09
9.85022661170307e-09
2.149300986716008e-08
4.5185595188064024e-08
9.208520163567215e-08
1.8263798640369156e-07
3.531722160499897e-07
6.660156623779672e-07
1.2241404864822419e-06
2.19103826242085e-06
3.81572432152079e-06
6.461273985550383e-06
1.0633016748226105e-05
1.699961061687333e-05
2.6397214133709694e-05
3.9804832535556655e-05
5.827895057309898e-05
8.283913615139464e-05
0.00011430429285871025
0.00015309144739544434
0.0001990035679717441
0.0002510464035947384
0.0003073220445255355
0.0003650442969004516
0.00042070539086761703
0.0004703958702529997
0.0005102448772008171
0.0005369151048701668
0.0005480653021524497
0.0005426911537662667
0.0005212752902497767
0.00048571516750748266
0.0004390439032580706
0.00038500144137133894
0.000327540550504825
0.00027035795947465217
0.00021652576835802815
0.00016826839264763767
0.00012689518726362417
9.286796026292811e-05
6.596237556643048e-05
4.547513349813303e-05
3.0433264279394296e-05
1.9773813453104228e-05
1.247685340617732e-05
7.648104624877774e-06
4.557064405858281e-06
2.641681193668027e-06
1.4918314723549772e-06
8.223870995321973e-07
4.4385813384179485e-07
2.3556022536302738e-07
1.2367738902040533e-07
6.476484789336615e-08
3.416714925033848e-08
1.8359056049293443e-08
1.0145828357403734e-08
5.800059283738682e-09
3.4296333488792498e-09
2.0854639894062458e-09
1.2916870749441269e-09
8.062460619181827e-10
5.020813471192722e-10
3.0926747791826123e-10
1.8708252637141122e-10
1.104711444008831e-10
6.33414257513473e-11
3.509571090857576e-11
1.8706645133013762e-11
9.554791936056781e-12
4.666655137626887e-12
2.1860254825052605e-12
9.983197310702423e-13
4.648551571551624e-13
2.395010602960962e-13
1.4693744747250985e-13
1.0562633684830162e-13
8.177709737491805e-14
6.363127758693194e-14
4.824313866101475e-14
3.539535046638581e-14
2.5236419415683772e-14
1.763701850916488e-14
1.2199575185233114e-14
8.423854045426815e-15
5.841545460316221e-15
4.080266303828473e-15
2.872983611293593e-15
2.0397192657055742e-15
1.4620254715028167e-15
1.0610372356269944e-15
7.824549371907505e-16
5.877333173726275e-16
4.493494359160303e-16
3.4814912474077346e-16
2.714807030133031e-16
2.115395036057965e-16
1.638215944319158e-16
1.2579157955793507e-16
9.588400600076324e-17
7.28812509096991e-17
5.562280089687374e-17
4.294542937019094e-17
3.3741853251237725e-17
2.7046886980204687e-17
2.2096813429275267e-17
1.834332919210889e-17
1.5428267605672287e-17
1.313675326759604e-17
1.1346951207841504e-17
9.988829536452317e-18
9.016966474365006e-18
8.396649599240682e-18
8.099875682036413e-18
8.108418019493263e-18
8.423894199058811e-18
9.088141246929003e-18
1.0219338668951015e-17
1.2068420952240874e-17
1.5094967421397956e-17
2.0051289137103204e-17
2.8048467046847105e-17
4.0561126282244826e-17
5.93136493875206e-17
8.598679679618095e-17
1.2169989423077545e-16
1.662703783233196e-16
2.1733928794974723e-16
2.6958534036511116e-16
3.1443443516442494e-16
3.4090320331817137e-16
3.3848488921852016e-16
3.032739434851461e-16
2.4879963270926383e-16
2.232536633228791e-16
3.3491150101275287e-16
7.875826101332686e-16
1.928101663072045e-15
4.3088883699277885e-15
8.7721360883559e-15
1.6571779428364782e-14
2.957205965915478e-14
5.061109237801637e-14
8.422276516843471e-14
1.3813276737817633e-13
2.2642814927911618e-13
3.7638325906563164e-13
6.434015058508216e-13
1.1442104193281103e-12
2.131296500445861e-12
4.159935327946781e-12
8.459841754763449e-12
1.774860600471823e-11
3.797239655720052e-11
8.1932485836688e-11
1.766197297536984e-10
3.775855895713842e-10
7.961799107328813e-10
1.6494171967093808e-09
3.3480272879674106e-09
6.646132278625876e-09
1.2885622790692123e-08
2.4378194056415015e-08
4.4974806129794956e-08
8.087022472543217e-08
1.4167081518565214e-07
2.4170677520514366e-07
4.014864982640272e-07
6.490678678274555e-07
1.0209689653709492e-06
1.5620884529626801e-06
2.3240060140278544e-06
3.3610559476158364e-06
4.723784193705409e-06
6.449855962230185e-06
8.553161853012261e-06
1.1012669731281027e-05
1.3763288347247834e-05
1.6691386032461998e-05
1.963739493585061e-05
2.240698930963205e-05
2.4790714935887657e-05
2.6589960789221578e-05
2.7645287915355623e-05
2.7861910074546095e-05
2.722699086107148e-05
2.581455534202572e-05
2.377605193488291e-05
2.131749118935387e-05
1.866701182366486e-05
1.6039038004030255e-05
1.3602347809961541e-05
1.1458993964218936e-05
9.63896413300097e-06
8.111932077089726e-06
6.81306634256922e-06
5.6757279925713166e-06
4.661373059971572e-06
3.7772614078668032e-06
3.076059013616369e-06
2.637288261708134e-06
2.5368674447529516e-06
2.8152660677621414e-06
3.455279886551437e-06
4.37682291835188e-06
5.449924359603239e-06
6.520888228256368e-06
7.442779590153151e-06
8.101243393197303e-06
8.429651159727259e-06
8.411978611403284e-06
8.075673202338632e-06
7.478802204260325e-06
6.69580588938318e-06
5.804909124439598e-06
4.878639300833379e-06
3.977670896812526e-06
3.1475979052140635e-06
2.4180770060304415e-06
1.803813023152532e-06
1.3068819427635715e-06
9.198621669138117e-07
6.292255865274374e-07
4.184897663633442e-07
2.7076752352408983e-07
1.7053601593992508e-07
1.0462798859450214e-07
6.257770247860497e-08
3.65154395090131e-08
2.0805424473953837e-08
1.1584761622797575e-08
6.309323345455106e-09
3.363912552828529e-09
1.757357246675304e-09
9.003728067801775e-10
4.528262321084926e-10
2.237658894424935e-10
1.0874793888654988e-10
5.2027006413624535e-11
2.4526452308051972e-11
1.1403919535150129e-11
5.234743820419777e-12
2.3743996509383527e-12
1.0651381625671884e-12
4.729421635433444e-13
2.0801717361464998e-13
9.069930824381455e-14
3.923001274497687e-14
1.684110305912002e-14
7.177824466944729e-15
3.0381263918713644e-15
1.2780050764999416e-15
5.349332695925066e-16
2.2273286904147774e-16
9.182394632824134e-17
3.7302183088908096e-17
1.517421941297752e-17
6.498202485967278e-18
2.926984323248416e-18
1.135566901591929e-18
2.2344449557063576e-19
4.315780929217751e-20
6.426231531719197e-19
5.671660253740357e-19
4.198470219638217e-19
6.611054601418162e-19
1.755800356888574e-18
4.0905619834671784e-18
8.535746833403689e-18
1.7408997432814788e-17
3.5650283508474415e-17
7.2661510882178e-17
1.4599761401225433e-16
2.887163501990366e-16
5.634613944772688e-16
1.0898197001318996e-15
2.098618064492387e-15
4.037494372130673e-15
7.761012998222665e-15
1.4827740526854354e-14
2.7857983613589215e-14
5.073393386720406e-14
8.816735864245284e-14
1.4406595402208045e-13
2.188770642899237e-13
3.087319599191823e-13
4.142629753445347e-13
5.720663569591592e-13
9.188575947060677e-13
1.7741125646955058e-12
3.673595803065392e-12
7.22634231410222e-12
1.2683594082324382e-11
1.9342167563814795e-11
2.549331690534566e-11
3.058088615571234e-11
4.2376594000541e-11
9.319514809704699e-11
2.7108950372149197e-10
7.770229473963982e-10
2.0323338056337755e-09
4.890234560423323e-09
1.1060044352655276e-08
2.3942410399521905e-08
5.020453863740863e-08
1.025980115635849e-07
2.0472952950210866e-07
3.987072270372257e-07
7.567337839069671e-07
1.3976762759258625e-06
2.5092207482433855e-06
4.3751860416781775e-06
7.405729673677028e-06
1.216549206689779e-05
1.9391473746092538e-05
2.9989349671813535e-05
4.499519293030251e-05
6.54907059442443e-05
9.246542860008136e-05
0.00012662965662383805
0.00016819618246265486
0.0002166648029887348
0.00027065638450024575
0.0003278478387923624
0.0003850511867585325
0.00043845738229769904
0.0004840315931163857
0.0005180087053960889
0.0005374064920918511
0.0005404595098407205
0.0005268857245647668
0.0004979296835684612
0.00045617305977230775
0.0004051528822349225
0.00034886621778912276
0.00029125766802849245
0.00023577972235885744
0.00018508989141539247
0.00014091188854244683
0.00010405174623220237
7.453249474811845e-05
5.1797513626110806e-05
3.4932855880192684e-05
2.28691692639453e-05
1.4539123121159034e-05
8.981591457664882e-06
5.395855189581564e-06
3.1563031395320996e-06
1.8007117727482114e-06
1.0043544052610083e-06
5.494470227738256e-07
2.961196331858639e-07
1.5811853160658018e-07
8.423895378266537e-08
4.51357418901147e-08
2.4520160564656235e-08
1.3599054456083174e-08
7.7318303240768e-09
4.508376662736603e-09
2.6868614819391694e-09
1.6263520815838354e-09
9.91952869665479e-10
6.045744167650287e-10
3.652504994438583e-10
2.1709872124833204e-10
1.2607020483112805e-10
7.104442397301417e-11
3.858599659596143e-11
2.0048352040692242e-11
9.880715052603658e-12
4.5744459644433e-12
1.9705349228235017e-12
7.888759582511339e-13
3.0559849248822677e-13
1.349763623122594e-13
8.656579523039688e-14
7.569605163276451e-14
7.044701373279263e-14
6.234030271003063e-14
5.151010041462877e-14
4.007638596757606e-14
2.974660077733657e-14
2.132828236569959e-14
1.4930164031617846e-14
1.0289878269111692e-14
7.0246516159729045e-15
4.769789877700816e-15
3.2318181271249693e-15
2.1937538645760613e-15
1.501089366229804e-15
1.044647685131478e-15
7.468868053616886e-16
5.527299047969085e-16
4.2375509874320185e-16
3.3424736035662823e-16
2.6808530992558023e-16
2.1602071766621494e-16
1.7330473321467355e-16
1.377688152423924e-16
1.0844906755202363e-16
8.474887000330203e-17
6.604394164049196e-17
5.1585797212402455e-17
4.055953976478201e-17
3.21853099527684e-17
2.5798585658123752e-17
2.0885771939536e-17
1.7079057287101993e-17
1.4126954425427605e-17
1.1857832554511243e-17
1.0148377573693848e-17
8.90203718811917e-18
8.037245869332531e-18
7.482959680821242e-18
7.179743005044814e-18
7.08736193099341e-18
7.202991388302158e-18
7.595894382023658e-18
8.462976664667206e-18
1.020358201534914e-17
1.3500817665229571e-17
1.938161207330839e-17
2.921161931712037e-17
4.456924761722202e-17
6.69427670091734e-17
9.721404582850748e-17
1.3494007494898352e-16
1.775252060085913e-16
2.1949585859983133e-16
2.5224451237127517e-16
2.6479668886855444e-16
2.463652028133114e-16
1.916763969727931e-16
1.1025946959885844e-16
4.1044157231017747e-17
7.36666163367139e-17
3.7781591510935736e-16
1.2418617538934353e-15
3.1223088635604273e-15
6.7074478232646545e-15
1.3004413119002842e-14
2.3473843841599572e-14
4.027087397764448e-14
6.672722099002827e-14
1.0837592036898524e-13
1.7519319326747505e-13
2.865854504782605e-13
4.826271680756099e-13
8.496216454881034e-13
1.5784156967821216e-12
3.096770362443115e-12
6.365955729788359e-12
1.3532462906621995e-11
2.932566900073785e-11
6.397399655272474e-11
1.391118487855519e-10
2.993786501167354e-10
6.344727537643637e-10
1.3197078701961709e-09
2.688053680777105e-09
5.353539387021852e-09
1.0414671096063297e-08
1.977619931733014e-08
3.663570074157622e-08
6.618336820109294e-08
1.1655195682889912e-07
2.0001975392623957e-07
3.3440331259211253e-07
5.444728682315762e-07
8.630858097038951e-07
1.331582485458839e-06
1.9988651035672925e-06
2.918545536363058e-06
4.143671626530084e-06
5.718881183799596e-06
7.6704013036162e-06
9.995046404664658e-06
1.2650119626045209e-05
1.5546660930756556e-05
1.8548559479793887e-05
2.147946562610242e-05
2.413815878837431e-05
2.632122501017452e-05
2.7849958088821692e-05
2.8596838030333267e-05
2.8506264686654713e-05
2.7604763080072656e-05
2.5997665436711012e-05
2.3852015840943623e-05
2.1368560450981955e-05
1.874844632576445e-05
1.616191877070809e-05
1.3726302133766248e-05
1.1498613415404494e-05
9.484505011908274e-06
7.660640557109162e-06
6.0033603870581085e-06
4.514080855766672e-06
3.2324564872796854e-06
2.2321532123463514e-06
1.6000985225387327e-06
1.406167752657921e-06
1.6740094956329087e-06
2.3634689475628513e-06
3.370834411027862e-06
4.546650034065898e-06
5.7248159827269884e-06
6.753528872246727e-06
7.519270917213866e-06
7.958747051756096e-06
8.058419300267975e-06
7.845028362732434e-06
7.37203389192595e-06
6.706291360876857e-06
5.91746138163359e-06
5.070772626933257e-06
4.222594463889703e-06
3.417967006197603e-06
2.6894755752615624e-06
2.0572108992399206e-06
1.529739197384283e-06
1.1059647276487249e-06
7.776114047245773e-07
5.31924048002314e-07
3.541781116154127e-07
2.2968959127683947e-07
1.4517921545213398e-07
8.950181454282063e-08
5.385938524270275e-08
3.1662295341443707e-08
1.819833358745509e-08
1.0235074638104408e-08
5.637501327112072e-09
3.0436070889971288e-09
1.6120221858194813e-09
8.383252935260864e-10
4.284461481945044e-10
2.1538169115591236e-10
1.0659562333681945e-10
5.1984930849433755e-11
2.500401412428423e-11
1.1871789122130166e-11
5.568855100666627e-12
2.58293544768571e-12
1.1854872719842775e-12
5.388102941122664e-13
2.426775390071895e-13
1.0837954953043195e-13
4.8019417876781786e-14
2.1116744658559986e-14
9.220691421249328e-15
3.9998754647771624e-15
1.7244411003742173e-15
7.386657676951154e-16
3.140919610621361e-16
1.3274153963702324e-16
5.617048039299653e-17
2.3958095452233172e-17
1.0054225377363781e-17
3.853054137622258e-18
1.3220966601100274e-18
6.565516218933745e-19
1.6112822691837052e-18
6.374898288046058e-19
6.008358604136028e-20
1.7704616615334791e-19
9.5868908810623e-19
2.1915995229055184e-18
4.20767982092979e-18
8.524865297412023e-18
1.8247608148480417e-17
3.899955602680882e-17
8.163080159431111e-17
1.6799379520722222e-16
3.4183161872285764e-16
6.895068218674673e-16
1.3804505255434761e-15
2.7445681560648386e-15
5.411265449311903e-15
1.053415776732285e-14
2.0098068910104606e-14
3.722657555615709e-14
6.628726050036709e-14
1.1255910052970072e-13
1.8165184556978346e-13
2.8032315450113916e-13
4.2302781129485996e-13
6.508281203494283e-13
1.0659337830304786e-12
1.867722423368641e-12
3.3405937923389106e-12
5.707938677949613e-12
8.787375859708591e-12
1.1552357123369006e-11
1.2093148850175715e-11
9.022786785355833e-12
5.87601718354107e-12
2.032357129715436e-11
1.004931296348543e-10
3.5318643335784283e-10
9.971859248675643e-10
2.4750407339880767e-09
5.69585471371418e-09
1.2547191354102968e-08
2.691385418969819e-08
5.658245963919879e-08
1.165980605698312e-07
2.3486535125109755e-07
4.610149128412738e-07
8.796931174360422e-07
1.6293180364267718e-06
2.926739244932225e-06
5.096891090957993e-06
8.604261460197745e-06
1.4079867308538878e-05
2.2333886763084757e-05
3.434110702998972e-05
5.118534702442801e-05
7.395165522802467e-05
0.00010356269070843447
0.00014056851879419807
0.0001849155412001052
0.00023573673352626347
0.0002912163553899572
0.0003485820754356608
0.00040426209828456653
0.00045421454490444674
0.0004943965011252518
0.0005213009862810549
0.0005324637017794486
0.0005268376439368635
0.000504956125726951
0.00046884883416850067
0.0004217294530768941
0.00036752198865023714
0.0003103230025452315
0.00025390150253537676
0.00020131843442939673
0.00015471170850309032
0.00011525213436630714
8.324152411421612e-05
5.830365731986664e-05
3.9613679638972794e-05
2.6119173078779863e-05
1.672130721830019e-05
1.0401466272358137e-05
6.29314609821187e-06
3.7084025783576226e-06
2.1323780482016333e-06
1.1994764189774304e-06
6.622307384693732e-07
3.6038400809012386e-07
1.9433267029877061e-07
1.0448007479536679e-07
5.6384526460189426e-08
3.0748149690086864e-08
1.7039831242874162e-08
9.631369140783709e-09
5.557732518451639e-09
3.267675390333024e-09
1.9487122268300017e-09
1.1712969582260731e-09
7.043618081425541e-10
4.205032184390835e-10
2.4729803349935044e-10
1.4217199889472905e-10
7.927871400580901e-11
4.251934093098134e-11
2.1717380941877266e-11
1.0429840893828299e-11
4.6254213390552125e-12
1.8423635408836678e-12
6.304277706810851e-13
1.7508796594845153e-13
4.628291365025077e-14
3.4887561649438986e-14
5.0669941595571106e-14
6.204754169974943e-14
6.292563370896391e-14
5.603669693651659e-14
4.560471444166003e-14
3.4797426012837364e-14
2.532444046942138e-14
1.7790188051153048e-14
1.2164662450441013e-14
8.1432956495896e-15
5.359152594918268e-15
3.4813529030113108e-15
2.245739755785965e-15
1.4535802264867744e-15
9.596570762956459e-16
6.597266966232372e-16
4.804975028203046e-16
3.7216164262055157e-16
3.026391285395814e-16
2.5283930889808113e-16
2.1263847161991184e-16
1.7755623441689762e-16
1.4620403600775162e-16
1.1852943184398882e-16
9.477872595107003e-17
7.501727593421682e-17
5.90137429581588e-17
4.631107780049192e-17
3.635429312147718e-17
2.8600430239402005e-17
2.258266108359625e-17
1.7930363911404906e-17
1.436035861310687e-17
1.165588903246377e-17
9.645162857283095e-18
8.185060606016923e-18
7.150933400125047e-18
6.431429107943764e-18
5.927950596454558e-18
5.560745652699201e-18
5.286295878125786e-18
5.131853499220276e-18
5.250936494449947e-18
5.997083614225324e-18
8.001995338336622e-18
1.2229765837538416e-17
1.996465903509439e-17
3.2681177201907046e-17
5.1748742760429616e-17
7.794602385146596e-17
1.1080719242512859e-16
1.4789676792641875e-16
1.8421030972929556e-16
2.1202146165914875e-16
2.216368818119996e-16
2.0367434322154656e-16
1.536387736200534e-16
7.972115611024964e-17
1.4853182377181873e-17
3.4058756646394724e-17
2.7798022637926555e-16
9.830899755272709e-16
2.5186648593212437e-15
5.430672290224864e-15
1.0494781238996326e-14
1.8788124237529163e-14
3.1809507904302046e-14
5.172685523675003e-14
8.194699161358385e-14
1.2847825204484785e-13
2.032110513208852e-13
3.3179231366089716e-13
5.723876433461642e-13
1.0598598435504485e-12
2.108066140190807e-12
4.44174072371247e-12
9.709217177724185e-12
2.158559923044087e-11
4.8078828752127716e-11
1.0620858525357419e-10
2.3121399603558942e-10
4.941169434491527e-10
1.0341677183150121e-09
2.1168321974501036e-09
4.233906322780656e-09
8.27016580424439e-09
1.5770137145852266e-08
2.934737944294093e-08
5.328353233401801e-08
9.435941998077404e-08
1.6293754216405472e-07
2.7426511026410946e-07
4.498820378506294e-07
7.188983111441726e-07
1.1187620996679643e-06
1.6950042998924209e-06
2.499367426171692e-06
3.585771465314201e-06
5.003798910803986e-06
6.789829851704819e-06
8.956601573379766e-06
1.1482700607548692e-05
1.4304131779998703e-05
1.731041222192452e-05
2.0347388931538807e-05
2.3228059383370124e-05
2.5751148388580254e-05
2.7725335747965698e-05
2.899528905192439e-05
2.9464553358652067e-05
2.911031907980978e-05
2.7986331231190282e-05
2.6212584859481513e-05
2.3953496223518625e-05
2.1389207748193456e-05
1.8686735714524252e-05
1.597807526754311e-05
1.3350758904635771e-05
1.0852898270164306e-05
8.510252124706525e-06
6.348725828815265e-06
4.41345988284242e-06
2.776433018939561e-06
1.5284106261545308e-06
7.569429482604816e-07
5.177733986310462e-07
8.100949381557168e-07
1.5651427293726644e-06
2.6528776286544145e-06
3.904936247752835e-06
5.146372010842364e-06
6.226277555197338e-06
7.038895654206332e-06
7.531221147645023e-06
7.698168344746251e-06
7.569972420887932e-06
7.1975016693120056e-06
6.6398370901367094e-06
5.9560296753647955e-06
5.20072888751896e-06
4.422222528150476e-06
3.6614190143413873e-06
2.950971531244966e-06
2.3144855301701184e-06
1.7661629492011634e-06
1.3112338914349758e-06
9.472620900997693e-07
6.661082677865516e-07
4.5615586320326663e-07
3.0439350082158435e-07
1.9806506145553485e-07
1.257627638985424e-07
7.798378592078083e-08
4.7261677235908367e-08
2.8016569515727965e-08
1.6258181031807587e-08
9.243391352823624e-09
5.152828403319676e-09
2.8188345725936113e-09
1.5144690613297942e-09
7.997946223452204e-10
4.1551515274989136e-10
2.1254469848586395e-10
1.0713546491847712e-10
5.32595684397799e-11
2.6133612818150365e-11
1.266734504132477e-11
6.070029850983919e-12
2.877631234364338e-12
1.350583408751842e-12
6.279602565449271e-13
2.8941770001601534e-13
1.3229088816491813e-13
6.000009549586953e-14
2.7013582923966997e-14
1.2078067110558839e-14
5.364465420043431e-15
2.3671196642201125e-15
1.0379513653605654e-15
4.527682904631461e-16
1.9682894555310095e-16
8.513340795722369e-17
3.624215855015775e-17
1.5039151898101886e-17
6.337042251772504e-18
3.042830413442496e-18
4.957118996218274e-18
1.738756664746882e-18
4.544642193120156e-19
4.696221871328099e-19
9.437669063666422e-19
1.2798691099384315e-18
1.8007916326102923e-18
3.772037396099161e-18
9.055546992031105e-18
2.0567933395732733e-17
4.450393804188637e-17
9.474751812017134e-17
2.005835705072792e-16
4.214466135091591e-16
8.766124990039057e-16
1.8031913360139807e-15
3.662487067717709e-15
7.320219832596953e-15
1.4321655481598706e-14
2.725563452966769e-14
5.0153900131668683e-14
8.886903979421233e-14
1.5160710548973475e-13
2.5055317869713796e-13
4.0686988765216114e-13
6.621856410553778e-13
1.0967128634789476e-12
1.8423007846269178e-12
3.056494470178156e-12
4.804586050723797e-12
6.820593399894631e-12
8.243077980448601e-12
7.675329958085907e-12
4.222280837710044e-12
2.9950996343905536e-13
6.823265525056947e-12
5.118718589902877e-11
1.895972335561657e-10
5.30714431264903e-10
1.2913018738725845e-09
2.931627132482681e-09
6.464280109250324e-09
1.4101903049519157e-08
3.051720857360467e-08
6.514519496996696e-08
1.3617094298878498e-07
2.7710438974994635e-07
5.470881300863498e-07
1.046186985529515e-06
1.9366586271109067e-06
3.47033321501898e-06
6.020478889001799e-06
1.011377980206651e-05
1.6454492575401558e-05
2.592913829406814e-05
3.957745331368889e-05
5.8515445438220175e-05
8.38010397713435e-05
0.00011624309072083809
0.0001561701310155526
0.00020319354475125764
0.0002560159496719548
0.00031234305041083103
0.0003689502228055535
0.0004219309437906062
0.00046711564075851687
0.0005006053222270345
0.0005193272672071722
0.0005215028595479677
0.0005069281988289475
0.0004770057419514854
0.0004345202567336132
0.00038320915320341114
0.0003272196314479549
0.0002705619687726709
0.00021665715156332754
0.00016804407753977398
0.00012626848234351852
9.193539968177703e-05
6.487902347699098e-05
4.439250338535497e-05
2.9464168235235497e-05
1.898088557152191e-05
1.1877412740702505e-05
7.2272566763372786e-06
4.2824420867682464e-06
2.4757141763989983e-06
1.3998566011636209e-06
7.766713970988182e-07
4.245388021579934e-07
2.2974985023936155e-07
1.2380004876569817e-07
6.683482601514042e-08
3.63737616716621e-08
2.0065521270337327e-08
1.1264110179888926e-08
6.445584480337639e-09
3.756128307376754e-09
2.2212982061385036e-09
1.325616967141809e-09
7.926996720126484e-10
4.712885264952756e-10
2.763401918547056e-10
1.5850176226338867e-10
8.818700815851612e-11
4.715899686302375e-11
2.3973608008417194e-11
1.1415906513492082e-11
4.97992819315946e-12
1.914935913051479e-12
5.997690621561178e-13
1.2346080384639439e-13
5.106874008874801e-15
1.1322527550383473e-14
4.209576896409336e-14
6.32367610138739e-14
6.91023027615341e-14
6.382170140586379e-14
5.301095676897887e-14
4.089317304705765e-14
2.985593781673277e-14
2.087550807156341e-14
1.4083073441551518e-14
9.20811758035384e-15
5.851664767872738e-15
3.624277054378973e-15
2.1996178087270598e-15
1.3245644370194458e-15
8.115388654400783e-16
5.261646135727556e-16
3.7548899001627257e-16
2.98081956455308e-16
2.5588419097639155e-16
2.274512722806588e-16
2.0240545561828618e-16
1.7705988263716537e-16
1.5120686490986817e-16
1.259917743179793e-16
1.0269864568427145e-16
8.220947303159471e-17
6.488905101430349e-17
5.068437568879457e-17
3.92902014838902e-17
3.0297251281536646e-17
2.329104278334351e-17
1.7901304561123686e-17
1.3816184135025852e-17
1.0777483347338968e-17
8.569101493425673e-18
7.005399305374686e-18
5.922022768633309e-18
5.169889057342887e-18
4.613450933948552e-18
4.136203875644869e-18
3.65836539875687e-18
3.1721248214647923e-18
2.7972506955247745e-18
2.853104400803116e-18
3.932334730257048e-18
6.948479914714068e-18
1.3118026525601367e-17
2.3832397679600785e-17
4.0382745200549336e-17
6.352538037782452e-17
9.292090776951603e-17
1.26544955558509e-16
1.6024899294041296e-16
1.877408400538832e-16
2.0135208631845247e-16
1.940626942704835e-16
1.6336165909694993e-16
1.1762993638593004e-16
8.58097565259441e-17
1.3110638498036137e-16
3.692410577030166e-16
9.911960041823882e-16
2.289368301474536e-15
4.684695735530622e-15
8.75130354684602e-15
1.5236478424673234e-14
2.5082158671840987e-14
3.94815520456873e-14
6.008038422033995e-14
8.962915892142703e-14
1.338859320872305e-13
2.0676857774480204e-13
3.4358459571299124e-13
6.336205347992807e-13
1.2975928922391629e-12
2.865706363340255e-12
6.574173061563461e-12
1.522122587150821e-11
3.495960577707894e-11
7.893871445984715e-11
1.7448681725510093e-10
3.768546201316563e-10
7.947232496632311e-10
1.6360820694670994e-09
3.28808364375346e-09
6.451314059596575e-09
1.2357360189274558e-08
2.3107487860065935e-08
4.2177047963319705e-08
7.513022773717002e-08
1.3057602335042848e-07
2.2136025772360177e-07
3.65921938937986e-07
5.896412961438527e-07
9.258770582442461e-07
1.4162528101442402e-06
2.1096461631519488e-06
3.0593162837616096e-06
4.31773722336922e-06
5.929034019932112e-06
7.919451315629135e-06
1.0286958222634282e-05
1.2991766919246892e-05
1.5950009697963442e-05
1.9032856082910402e-05
2.207279081108543e-05
2.4877584427599962e-05
2.7250833578136318e-05
2.901618552479108e-05
3.004097586026816e-05
3.0254482378794876e-05
2.9656654147143495e-05
2.8315038717049094e-05
2.6350362865401077e-05
2.3914152286160436e-05
2.116404416551808e-05
1.8243242164315207e-05
1.5269404010649343e-05
1.2335234359810532e-05
9.518967974803362e-06
6.899124714095252e-06
4.5659120387103765e-06
2.6225107047830936e-06
1.1732505197512408e-06
3.0114834074550004e-07
4.228459947966071e-08
3.668088055220302e-07
1.1747448645482506e-06
2.309666232672795e-06
3.5868004619753453e-06
4.826976545136137e-06
5.8861987628002285e-06
6.673016674045475e-06
7.15093348954907e-06
7.328456598808184e-06
7.242818850315288e-06
6.943857318903517e-06
6.482483716002646e-06
5.905067693918164e-06
5.252440608210302e-06
4.561036831718303e-06
3.863956299657649e-06
3.190841700278628e-06
2.566636340522725e-06
2.0099870149419925e-06
1.5321444885441322e-06
1.1368737338243562e-06
8.214157509844062e-07
5.781832709442462e-07
3.9672666804373995e-07
2.655524655905258e-07
1.73529723024143e-07
1.1079076827594479e-07
6.91645269363144e-08
4.22528090841888e-08
2.5278950360453552e-08
1.4822782290535475e-08
8.525149085679778e-09
4.812936061765483e-09
2.6692531915413133e-09
1.4553887647279526e-09
7.807612185262594e-10
4.1242927805478686e-10
2.1469157269650915e-10
1.1021860637575096e-10
5.584761902707089e-11
2.7950659174766058e-11
1.3827208125965296e-11
6.766068568950885e-12
3.277076856295604e-12
1.5720125346732392e-12
7.472997912016623e-13
3.5223455156386154e-13
1.6469325087239778e-13
7.642173628849185e-14
3.520673616758188e-14
1.610818607192764e-14
7.321612150062572e-15
3.3072448106699208e-15
1.4854289444582452e-15
6.635267502394916e-16
2.944198246813266e-16
1.294890009817829e-16
5.6630007893138e-17
2.5054553928967775e-17
1.1354482802481775e-17
1.795710260110558e-17
7.43100780665435e-18
3.288686777586819e-18
2.0405525296433546e-18
1.453690397702787e-18
7.17568503504859e-19
3.950971248937599e-19
1.4996845393469264e-18
4.696990158225648e-18
1.0919460924341642e-17
2.3531281242479386e-17
5.1434593097591943e-17
1.1375650472319173e-16
2.496230564874367e-16
5.397337021102594e-16
1.1501719071365784e-15
2.4149292897647764e-15
4.982634367733694e-15
1.0061493300834958e-14
1.9797656886279103e-14
3.781549055068081e-14
6.996319159853086e-14
1.2543531043957427e-13
2.1882071288050722e-13
3.742269669599762e-13
6.327521868939556e-13
1.062198836004556e-12
1.7601818736232113e-12
2.828579661093798e-12
4.288930183526826e-12
5.932041010833881e-12
7.185641655510775e-12
7.245033556811589e-12
5.859621683497184e-12
5.1247042385129806e-12
1.2264712557973754e-11
4.29725933872762e-11
1.2544446682856998e-10
3.088409424839992e-10
6.892587434403675e-10
1.4844777430890174e-09
3.2194227200913015e-09
7.133350555811888e-09
1.5997916379740433e-08
3.565885150803074e-08
7.780043244698179e-08
1.6468622910321632e-07
3.369219274900424e-07
6.65525368483976e-07
1.2696037839174048e-06
2.3404784371667104e-06
4.171873884149631e-06
7.19356784831923e-06
1.2002644710234734e-05
1.9382564065295776e-05
3.029655369173473e-05
4.583987840609727e-05
6.713725153969743e-05
9.517884283755247e-05
0.00013060177641812277
0.00017344245968761826
0.00022290460320057709
0.00027720201977095873
0.000333537024387262
0.0003882591961569394
0.000437215017768729
0.00047625280519967883
0.0005018017390528372
0.0005114135274076393
0.0005041521395261124
0.00048074503209809917
0.00044346193126665844
0.0003957495573002344
0.00034170438236708794
0.00028549552912198524
0.00023084952658586057
0.000180681102729636
0.00013691057225557107
0.00010046282760556913
7.140765258983341e-05
4.918283244553266e-05
3.2840805286344976e-05
2.127195186081709e-05
1.3376334382063356e-05
8.17438236989523e-06
4.8613452862277965e-06
2.8185359775182175e-06
1.596884674105569e-06
8.86770865090576e-07
4.844830284013501e-07
2.616282463364084e-07
1.4041144708570891e-07
7.535285653540477e-08
4.0698338758257244e-08
2.2258380181396945e-08
1.2387943830768972e-08
7.036083862270512e-09
4.078550547448893e-09
2.4056151917408104e-09
1.435641912263232e-09
8.604520027491848e-10
5.136077626478757e-10
3.027119599476902e-10
1.7467515173010767e-10
9.784741139045927e-11
5.2734106866805485e-11
2.7062139053415552e-11
1.3049102371167747e-11
5.8004923047456694e-12
2.3061452995230665e-12
7.785091395869812e-13
2.0506914324200954e-13
4.641160273094288e-14
3.762827520237722e-14
6.307308454419286e-14
8.163813201531483e-14
8.515173925800676e-14
7.718119930308913e-14
6.350081510093915e-14
4.863966098496091e-14
3.52207782263045e-14
2.4335411217332902e-14
1.6127325522965377e-14
1.0273018762668238e-14
6.289382428937859e-15
3.696635796378352e-15
2.0868233486334354e-15
1.1408579250459412e-15
6.223530278548477e-16
3.63646918157071e-16
2.509760861358083e-16
2.1123556033614496e-16