# vtk DataFile Version 4.1 
COMMENT
ASCII
DATASET STRUCTURED_POINTS 
DIMENSIONS 300 300 1 
ORIGIN 0 0 0
SPACING 0.020943951023931952 0.020943951023931952 0 
POINT_DATA 90000
SCALARS U double 1
LOOKUP_TABLE default
8.680546785133496e-19
4.3104390185079843e-19
5.66219686124784e-19
1.6654698053844886e-18
4.124608579036095e-18
9.251281134440017e-18
2.087812724062844e-17
4.8876173196687954e-17
1.1808019604653143e-16
2.9058165813126526e-16
7.190866402830249e-16
1.7702593998270235e-15
4.300881133983271e-15
1.025489523258983e-14
2.3904047727571788e-14
5.431506942395265e-14
1.2002276687530375e-13
2.574080651781588e-13
5.348093710978949e-13
1.0747018071436744e-12
2.0862172127160415e-12
3.910689836971107e-12
7.088153173000116e-12
1.2476261221892342e-11
2.1527641395572543e-11
3.70229620601172e-11
6.497488502730067e-11
1.192070588956376e-10
2.313904235556722e-10
4.7102887404272e-10
9.815419794663318e-10
2.0389708876387824e-09
4.136762637690167e-09
8.090601019667921e-09
1.5138445074908407e-08
2.6981832262380945e-08
4.567903828598556e-08
7.32715046500845e-08
1.110268229305728e-07
1.5825179645865437e-07
2.1081054496412565e-07
2.5980484119031763e-07
2.913216299132484e-07
2.8863048497237293e-07
2.385275865940721e-07
1.4340652795637607e-07
3.983947602597818e-08
2.2873988659974677e-08
2.730634993221827e-07
1.080936093656077e-06
2.8618596448336547e-06
6.153764468434864e-06
1.1591365706807739e-05
1.9853414218488368e-05
3.1583745404390575e-05
4.729191171743265e-05
6.724432675542164e-05
9.136143027686119e-05
0.00011913957728928609
0.00014961708309468088
0.000181400889720837
0.00021276272605735895
0.00024180150996262346
0.000266653869545088
0.0002857206229109296
0.00029786843206689
0.0003025665937989115
0.0002999305233541829
0.0002906637474302892
0.00027591358969297834
0.00025707508932314805
0.00023558706516487043
0.00021276113322662746
0.00018967078994588387
0.00016710870177778257
0.00014560255304421204
0.00012546830206513516
0.00010687660557435769
8.991244664672083e-05
7.46164760506294e-05
6.100557305837861e-05
4.9076847388414296e-05
3.8802499134967027e-05
3.0122874805343654e-05
2.2942868158432765e-05
1.713390497938226e-05
1.2541220600355632e-05
8.994566953096955e-06
6.319957254711792e-06
4.350331862995817e-06
2.9337433531030894e-06
1.9384740840962413e-06
1.255183893789558e-06
7.966306551455477e-07
4.957032538532892e-07
3.025063273243802e-07
1.8111292670038056e-07
1.0642538376672728e-07
6.140840387914204e-08
3.481243307322658e-08
1.9401570170475385e-08
1.06376629754508e-08
5.7427499665230934e-09
3.0554871623652133e-09
1.6042073308622203e-09
8.325350604090923e-10
4.2821100702046655e-10
2.1924902018403675e-10
1.125748352313452e-10
5.864607469383618e-11
3.1508434712590265e-11
1.778058471175236e-11
1.067956326641118e-11
6.83122774183566e-12
4.59174889832145e-12
3.1768041448498894e-12
2.2172721590322342e-12
1.53760363645135e-12
1.0488589087200746e-12
6.995513138955534e-13
4.546154219535962e-13
2.872708430545079e-13
1.7623536040207386e-13
1.0478560397906038e-13
6.022732374899356e-14
3.3321504255214215e-14
1.7622438446800922e-14
8.807994748177572e-15
4.082882466892251e-15
1.6982127868217563e-15
5.941721108247582e-16
1.5003995979272152e-16
1.707327962102435e-17
1.026540069317182e-17
3.9726496904932584e-17
6.797113166368993e-17
8.400557260913138e-17
8.831604428480073e-17
8.487217109544406e-17
7.748687119550561e-17
6.867155706362158e-17
5.971110545791351e-17
5.114999338245315e-17
4.325042597164937e-17
3.6252128277538455e-17
3.0432205583773783e-17
2.6044676428911212e-17
2.32349699083549e-17
2.2000242709979602e-17
2.222547125165194e-17
2.378674890351879e-17
2.6689419265223323e-17
3.120469001244627e-17
3.798224887791942e-17
4.814079120289653e-17
6.336347711074112e-17
8.604235570950301e-17
1.195193884658394e-16
1.6846051108799695e-16
2.3937425915470256e-16
3.4124895612384316e-16
4.8623227857137e-16
6.902150885641172e-16
9.731165768430808e-16
1.3586289979264668e-15
1.873233600737769e-15
2.5445663027426387e-15
3.3998832998132898e-15
4.4667113735640366e-15
5.780052412583276e-15
7.403962753488365e-15
9.479900533728082e-15
1.2319327357711244e-14
1.6562125651236418e-14
2.34225864228419e-14
3.503661129204273e-14
5.490152681775772e-14
8.835707102776735e-14
1.4298719184912817e-13
2.287252614712942e-13
3.5732512742680753e-13
5.407344896750277e-13
7.878151391376415e-13
1.0988786738837455e-12
1.457810434673273e-12
1.822456620191645e-12
2.116041549242026e-12
2.2267175420537216e-12
2.0307535941625166e-12
1.4705223743388933e-12
7.471712469585355e-13
7.410782283456086e-13
3.874405945240474e-12
1.5828017328501737e-11
4.891764798472062e-11
1.2870758020569538e-10
3.069232115825339e-10
6.864530314856985e-10
1.4690003853291637e-09
3.0438062361200604e-09
6.1480014472944605e-09
1.214657531031444e-08
2.350297244743416e-08
4.453881407582766e-08
8.260981727635054e-08
1.4984854109044733e-07
2.656343591068114e-07
4.599366519468446e-07
7.776284484180114e-07
1.2837766838920565e-06
2.0697773241788417e-06
3.260016916655059e-06
5.018505174030763e-06
7.554633625775792e-06
1.1126874468286143e-05
1.6042861114014286e-05
2.2653950239460104e-05
3.134218497701457e-05
4.24977633403215e-05
5.64859000763342e-05
7.360352300869906e-05
9.402853222584208e-05
0.00011776701477645901
0.00014460614965071806
0.0001740816664947129
0.00020546787217111065
0.00023779518214519916
0.0002698953296991744
0.00030046928520510333
0.0003281690780570494
0.00035168354158052396
0.00036981987077485903
0.00038157684282726084
0.00038620957984066684
0.00038328757831410164
0.0003727460149711903
0.00035492544266949245
0.00033058919881985555
0.00030090456003679906
0.00026737588086144046
0.00023172662460098958
0.0001957403971116518
0.0001610843981959382
0.00012914687815590136
0.00010091948848028635
7.694538986493805e-05
5.733781901522621e-05
4.185704897638741e-05
3.0021822590197997e-05
2.1227654391342582e-05
1.4848810990196003e-05
1.0310378463362408e-05
7.1274739137479204e-06
4.9168441305409685e-06
3.3901067285796935e-06
2.33796469831557e-06
1.6123532922635168e-06
1.1104115117425802e-06
7.616667650101988e-07
5.18368834411448e-07
3.4838048598703507e-07
2.300283282257705e-07
1.4847134589390782e-07
9.325999979898384e-08
5.680098330000749e-08
3.3455186905313285e-08
1.9024452699401058e-08
1.0439426064823129e-08
5.531706883403285e-09
2.836466682243064e-09
1.412873398417807e-09
6.877469476613861e-10
3.2990399724486466e-10
1.5759447652406154e-10
7.581805824151099e-11
3.7074526152445835e-11
1.8497672028125366e-11
9.385749516336227e-12
4.798651226896294e-12
2.442906190632674e-12
1.2245572945306225e-12
5.994135964020782e-13
2.8525938058065996e-13
1.3200344267186606e-13
5.971898183828162e-14
2.6713956684222793e-14
1.2015051903976512e-14
5.535460091232576e-15
2.6474987644384686e-15
1.3160172164168624e-15
6.717075447337564e-16
3.45588689375128e-16
1.7656620862173e-16
8.900964020704741e-17
4.396070520060933e-17
2.0681382518398956e-17
8.863221421416187e-18
3.587313832742841e-18
1.8439725659333457e-18
1.3417602936926405e-18
9.076402624552554e-19
7.783396311268267e-20
1.220676177978713e-19
7.681354238952394e-19
1.8391408196542727e-18
3.889504794147098e-18
8.816443417502239e-18
2.122522664260535e-17
5.2455966272526014e-17
1.3091119486994284e-16
3.2660610318778017e-16
8.081586151923188e-16
1.9724719879893086e-15
4.730378354317986e-15
1.1110183728845924e-14
2.5475124891884956e-14
5.685291966164165e-14
1.2311708636096654e-13
2.579129866071553e-13
5.21006870120781e-13
1.0117757308839907e-12
1.883838196482701e-12
3.3582721083770527e-12
5.741187892899329e-12
9.489713075739583e-12
1.5484736803071805e-11
2.5941887590663645e-11
4.694364799735148e-11
9.45258931485262e-11
2.076223590253451e-10
4.726967321236859e-10
1.0657808144990628e-09
2.316358663153539e-09
4.791832450030299e-09
9.38864220591164e-09
1.739481920158668e-08
3.046008082790653e-08
5.03807864559975e-08
7.859524779037684e-08
1.1531982920989461e-07
1.5837877698416184e-07
2.020305632943012e-07
2.3648295039143737e-07
2.492648323373477e-07
2.3003421593904777e-07
1.805010179689063e-07
1.3064842329195383e-07
1.6115340450644693e-07
4.298735888525549e-07
1.1978428276683014e-06
2.8480456269351733e-06
5.8890752386069e-06
1.0936237181198006e-05
1.8665009687582572e-05
2.9735871114799742e-05
4.469486655760417e-05
6.38602108804665e-05
8.721085682419165e-05
0.00011429723678803668
0.000144195997958544
0.00017552804056106383
0.00020655141574844673
0.00023532761243049875
0.0002599432607350197
0.0002787531397303307
0.0002905997210631663
0.00029496399934278103
0.00029201420050894257
0.0002825412099486034
0.00026779627489507653
0.00024926957156111564
0.00022846028978235842
0.00020668640948616002
0.00018496687023911528
0.00016398626030807322
0.0001441302059025136
0.0001255648612696091
0.00010832943089964158
9.241569895916434e-05
7.781940929376947e-05
6.456036429816857e-05
5.267747017475894e-05
4.2209720228421426e-05
3.31743252703252e-05
2.5550271509539255e-05
1.9271381325446916e-05
1.4229070902045135e-05
1.0282381624922094e-05
7.271754395800333e-06
5.033159114699833e-06
3.4100917172083164e-06
2.262108350432158e-06
1.4696110882114714e-06
9.353364765692725e-07
5.833834329533943e-07
3.567060018773287e-07
2.1388832636124476e-07
1.2581461453320787e-07
7.26242113778269e-08
4.114934850960439e-08
2.2891730025602865e-08
1.2505478746465301e-08
6.7090594312569e-09
3.5347588019255184e-09
1.8288781301293745e-09
9.294194319849632e-10
4.6432956310717146e-10
2.2866870462937539e-10
1.1174956841815878e-10
5.495858646922195e-11
2.788825619667993e-11
1.5114402565979226e-11
9.014226356440999e-12
5.938115401516329e-12
4.207126694537929e-12
3.086796832664058e-12
2.274381649839569e-12
1.6513438852501153e-12
1.1698648108504263e-12
8.049249854305661e-13
5.368481953213731e-13
3.4678975522443916e-13
2.168381900074632e-13
1.3110714489089085e-13
7.650894972299511e-14
4.294750563768069e-14
2.306309983412524e-14
1.1746571384487177e-14
5.600019898325502e-15
2.449908803322319e-15
9.56958118821521e-16
3.2765695716205775e-16
1.127775597979373e-16
7.246603037721558e-17
8.887817632777569e-17
1.113548441010164e-16
1.2328718707862649e-16
1.2313624767113797e-16
1.1442943262921586e-16
1.0118006788114787e-16
8.63210437267522e-17
7.15851944496551e-17
5.789313082471376e-17
4.576270445661864e-17
3.555595223061112e-17
2.7554208947410037e-17
2.1930446644140302e-17
1.8701504755156546e-17
1.7720109781763057e-17
1.8730145804659583e-17
2.14750964543301e-17
2.5829477311149427e-17
3.192082886058063e-17
4.022378527008962e-17
5.1631189136967103e-17
6.753085602989378e-17
8.993151114781397e-17
1.216816690787271e-16
1.668085934072757e-16
2.3097141539995014e-16
3.2197423473318773e-16
4.502226734665205e-16
6.289339675086982e-16
8.738376374751319e-16
1.2020617038651768e-15
1.629952644996632e-15
2.169839270698941e-15
2.8263947778698212e-15
3.594507402611354e-15
4.462691252110122e-15
5.429244957124838e-15
6.542559187602523e-15
7.981658682212524e-15
1.0196874602113503e-14
1.4130891628523108e-14
2.15332147738569e-14
3.536081284019373e-14
6.021797428374565e-14
1.027236574599725e-13
1.716027047746525e-13
2.771838300951577e-13
4.2987217232882787e-13
6.370920905683037e-13
8.982536289201777e-13
1.1976413869874228e-12
1.4960295907735808e-12
1.7237398223709294e-12
1.7814852067743673e-12
1.5617905219648942e-12
1.014859524335334e-12
3.0187691287877996e-13
1.1313668038708852e-13
2.294564386750287e-12
1.1061150423918467e-11
3.53581879637059e-11
9.351650453374434e-11
2.225199344709553e-10
4.964383821311561e-10
1.0626077961607792e-09
2.2109674944127758e-09
4.502817684894734e-09
9.001350580738012e-09
1.7668407458917372e-08
3.4019678915362016e-08
6.416171988290551e-08
1.1836371271749885e-07
2.1333678665241158e-07
3.7539297154214376e-07
6.44621937127494e-07
1.0801441288732654e-06
1.7663635113391603e-06
2.819945312411566e-06
4.396982013197986e-06
6.699488620193465e-06
9.98000101086361e-06
1.4542674640943983e-05
2.0738966629470803e-05
2.8955852634063047e-05
3.95947482065818e-05
5.3040052601120325e-05
6.961763069657338e-05
8.95455542663608e-05
0.00011288174901286165
0.00013947529138113405
0.0001689292731874942
0.00020058279116600756
0.00023351748164467744
0.0002665904450390636
0.00029849130233314226
0.00032781770519271704
0.00035316190837685177
0.0003732013606087772
0.00038678810651804324
0.00039303378430940224
0.00039138763672632784
0.000381703322729718
0.0003642867788118644
0.00033991368545059733
0.00030980383662188596
0.0002755431688672593
0.00023895306431946086
0.0002019190929473061
0.0001662037350503015
0.00013327514314662362
0.00010418314895960291
7.950386003124347e-05
5.9358104517174764e-05
4.3491878634173475e-05
3.13943400002213e-05
2.242435382924996e-05
1.5920509100654506e-05
1.1279249909502328e-05
7.997143060976361e-06
5.682488850813311e-06
4.046347844164398e-06
2.8835427554648896e-06
2.0517362214999538e-06
1.4531960539285146e-06
1.0208482478595096e-06
7.083799406388858e-07
4.834508051786627e-07
3.2307800834477145e-07
2.1052369013528021e-07
1.3325338849248916e-07
8.166384791596802e-08
4.833214551294336e-08
2.7573920193185174e-08
1.5148811143624976e-08
8.014391193532154e-09
4.088315172144019e-09
2.0174328952541267e-09
9.68853181786061e-10
4.5736046610870555e-10
2.1536069528632514e-10
1.0300569714117409e-10
5.0893990771500385e-11
2.6190390663484094e-11
1.3966801329716006e-11
7.59994046533697e-12
4.142603941320755e-12
2.227595412766849e-12
1.170178409608981e-12
5.979840584397196e-13
2.9747692718055644e-13
1.4478895453062435e-13
6.955874058520487e-14
3.335734268138747e-14
1.614795720886412e-14
7.95101549015996e-15
3.986185511390081e-15
2.0231676293935144e-15
1.0295868958545815e-15
5.203256697132444e-16
2.5904779507909833e-16
1.2590370200051966e-16
5.901109948011495e-17
2.6558243239562e-17
1.1858543526866758e-17
5.581333961805609e-18
2.625204477861724e-18
2.153130857398367e-18
6.1538743371452305e-19
4.361280102789708e-19
6.3132659889252e-19
8.301941279408179e-19
1.4145474849968853e-18
3.3667545603895047e-18
8.642802405950007e-18
2.214264437031918e-17
5.659170523489822e-17
1.4350129345328257e-16
3.58791050788445e-16
8.82938352040428e-16
2.1366546374524665e-15
5.072452963704901e-15
1.1772877975053015e-14
2.661431436406406e-14
5.837485443132461e-14
1.2369232403647803e-13
2.519788783157877e-13
4.908847189669378e-13
9.093385729331897e-13
1.59269875064818e-12
2.625758011668074e-12
4.077375280455492e-12
6.066649200576346e-12
9.165275829349278e-12
1.5768413820571636e-11
3.375653041826096e-11
8.483210692577397e-11
2.212258102771365e-10
5.555427987721524e-10
1.3083451923577394e-09
2.875045293871038e-09
5.905846822018448e-09
1.137808569071775e-08
2.0619122948337006e-08
3.5213342781370565e-08
5.67093777762338e-08
8.605530577386819e-08
1.2276545058861306e-07
1.6400527612951289e-07
2.0410065403756117e-07
2.354157492813579e-07
2.5199211196280017e-07
2.575855280971611e-07
2.7949147742210614e-07
3.885641518104901e-07
7.240404174154611e-07
1.5194169955966919e-06
3.123256851196666e-06
6.0071731047651356e-06
1.0753068472799513e-05
1.8013433503231174e-05
2.8442167496090795e-05
4.259864296789336e-05
6.0833965016951736e-05
8.317472746276512e-05
0.00010922490437844789
0.00013810935041243014
0.00016848097731177663
0.00019860651577794747
0.00022653243136246137
0.00025031460949090714
0.0002682768360676733
0.00027924962347248265
0.0002827382612486209
0.00027898028639495215
0.00026887654357744893
0.0002538104452167945
0.00023539767265196848
0.00021522443694739444
0.00019463147764988824
0.00017458408039966694
0.00015564188142902578
0.00013801523475453773
0.0001216757515070695
0.00010648183777647216
9.228540424195194e-05
7.899928148840006e-05
6.662048038078476e-05
5.5217198825863695e-05
4.489450896848822e-05
3.575462163866692e-05
2.7864088359553567e-05
2.1234662092757847e-05
1.5819011678441148e-05
1.1518499885723653e-05
8.198289639663765e-06
5.704902893186564e-06
3.882397065751841e-06
2.584853406274761e-06
1.6843445450795512e-06
1.0746501275998904e-06
6.716217851224507e-07
4.1131431489321686e-07
2.469246167631375e-07
1.453505378673677e-07
8.39090018595799e-08
4.750732322542526e-08
2.6376428971607084e-08
1.4355436488577245e-08
7.653710937963553e-09
3.993294654767802e-09
2.0359182108125716e-09
1.0124220809226272e-09
4.901233024264851e-10
2.3075312729283277e-10
1.0591242272333556e-10
4.7963720640519117e-11
2.2155153919247923e-11
1.1140780347485475e-11
6.566620598416895e-12
4.594635330170461e-12
3.575527727087783e-12
2.870381616807853e-12
2.2737874134286074e-12
1.7445352372799666e-12
1.2889042294646784e-12
9.16425445665711e-13
6.277125033252073e-13
4.1472980921651977e-13
2.645457898099438e-13
1.6295243634680935e-13
9.686070423487727e-14
5.546072943047807e-14
3.049587852637783e-14
1.6032144803098085e-14
8.014893840567609e-15
3.7940523253863736e-15
1.708302165206612e-15
7.592752959410492e-16
3.7434938242344206e-16
2.4300757791322375e-16
2.087885860639863e-16
2.00806433287314e-16
1.9225755814414278e-16
1.7666080916022278e-16
1.5527334018533907e-16
1.3116796362693527e-16
1.0697166211814648e-16
8.43756429110807e-17
6.432197546803761e-17
4.7311670309688395e-17
3.361619829292287e-17
2.335958475747953e-17
1.6518984566671392e-17
1.290828261581864e-17
1.2192198442442723e-17
1.394892223229565e-17
1.7771856469236444e-17
2.3384678062221324e-17
3.074283273518911e-17
4.010772135053449e-17
5.2101498854696294e-17
6.777191799383667e-17
8.870919947739661e-17
1.1725407857538092e-16
1.5681509968264197e-16
2.1227407024568213e-16
2.90403156295875e-16
4.001482273116605e-16
5.525563650877648e-16
7.600546789273751e-16
1.0347535177029874e-15
1.3855093299686395e-15
1.8137410793313484e-15
2.308598771791953e-15
2.8432292863086686e-15
3.375789282672044e-15
3.861684056481336e-15
4.287245943893387e-15
4.739278146056735e-15
5.52842871800465e-15
7.384989952289044e-15
1.1739827762356556e-14
2.1085726411932156e-14
3.937964459651503e-14
7.23890495075158e-14
1.278039773161763e-13
2.148372706802661e-13
3.429402323596099e-13
5.192167057194798e-13
7.442119379436845e-13
1.0061282270091382e-12
1.2744008026130322e-12
1.4952739852344618e-12
1.594973566927215e-12
1.5008257006339157e-12
1.1980353086996166e-12
8.514477932444098e-13
1.0416937736728032e-12
3.204843506755516e-12
1.0451726726113252e-11
2.913963466951422e-11
7.200277176651342e-11
1.6455774339764146e-10
3.5829784213543974e-10
7.575226743839099e-10
1.5724453133401178e-09
3.2206640150442328e-09
6.513478761170961e-09
1.2983949928716025e-08
2.5440317398237573e-08
4.886011834570526e-08
9.177328064257736e-08
1.683096198308455e-07
3.0109701149115473e-07
5.251775024726392e-07
8.930446099332812e-07
1.4807815207127045e-06
2.3950857637891436e-06
3.7806967082809583e-06
5.827403920479676e-06
8.775428851487269e-06
1.2917584949664571e-05
1.859630996894298e-05
2.619354444283668e-05
3.6111647397671733e-05
4.874423888485846e-05
6.443712435844485e-05
8.344124036396837e-05
0.00010586162217668196
0.00013160829067282098
0.00016035613331717694
0.00019152082045491943
0.00022425633595966394
0.00025747702379764174
0.0002899038026896189
0.0003201312551127346
0.0003467104147604765
0.00036824154965472256
0.00038347170430556653
0.000391392321597315
0.00039133188923820816
0.0003830366803062357
0.00036672966246499117
0.0003431349850619892
0.0003134552252872563
0.00027929265301528594
0.000242514719441735
0.00020507629998255957
0.00016882346652260656
0.00013531136313903286
0.00010566859446708815
8.053141132890177e-05
6.00551650200137e-05
4.399286201105258e-05
3.181675739927286e-05
2.2852831378346816e-05
1.6400712370244742e-05
1.1820994183965086e-05
8.583854576243607e-06
6.283257021912656e-06
4.6271442467633985e-06
3.415383731126965e-06
2.515026103491495e-06
1.8386782913664957e-06
1.328240277267758e-06
9.438794687128554e-07
6.570583063071175e-07
4.463066921225318e-07
2.947308199948385e-07
1.886009328659842e-07
1.166033004800034e-07
6.947360810613435e-08
3.980575352290636e-08
2.1896246435256296e-08
1.1551605742911792e-08
5.844384968296569e-09
2.8404527727113957e-09
1.3326407933013008e-09
6.100028170839671e-10
2.77821579847306e-10
1.2971390852117602e-10
6.416894763797386e-11
3.425121712302619e-11
1.9524962073528733e-11
1.1530253604995801e-11
6.835613590561239e-12
3.9815952194425535e-12
2.253809940606337e-12
1.2357637307094727e-12
6.574904397156398e-13
3.4121548477787417e-13
1.7400503966675574e-13
8.792480972244824e-14
4.436091304172314e-14
2.2462277766325055e-14
1.1429430380996013e-14
5.828630126366809e-15
2.963281455809637e-15
1.4924606180136402e-15
7.399195415225876e-16
3.5878429454991083e-16
1.69255586392191e-16
7.76995340414271e-17
3.500618304186008e-17
1.5466514332518057e-17
6.3553656732773384e-18
6.865113016874969e-18
2.6922450704357907e-18
1.2925605244247905e-18
6.527619237856045e-19
2.533825320585399e-19
3.341557656443827e-19
1.205599441445061e-18
3.403825685927226e-18
8.959227191192034e-18
2.365384572863904e-17
6.138302266599229e-17
1.5520824477474617e-16
3.852955736848615e-16
9.432466527198529e-16
2.2716187788462328e-15
5.356483236926805e-15
1.2313322945852049e-14
2.7472272796737255e-14
5.916719642226851e-14
1.2220026355540875e-13
2.4018348273378015e-13
4.452594253147121e-13
7.700899468447045e-13
1.2255144635125887e-12
1.7648043450678742e-12
2.2726990070536034e-12
2.7273986441445976e-12
3.938320007093901e-12
9.753990195650233e-12
3.2433941059151264e-11
1.0394715797141976e-10
2.9702270659851803e-10
7.602038224714337e-10
1.7699084135487166e-09
3.7982188122930005e-09
7.586395041161759e-09
1.4200036134487696e-08
2.5023360803887426e-08
4.163280283110177e-08
6.548859933402899e-08
9.742522731197558e-08
1.3704780898813608e-07
1.8239105025835784e-07
2.3057619356164476e-07
2.806404896096272e-07
3.4003674150873286e-07
4.362396080081731e-07
6.34175596203646e-07
1.0586754038621164e-06
1.91896630872632e-06
3.5298434080841574e-06
6.322285846711816e-06
1.0835648603518013e-05
1.76846821209097e-05
2.7497676445390937e-05
4.082680492483955e-05
5.803779642395653e-05
7.91927019661038e-05
0.0001039457155573152
0.00013147623554826522
0.00016048359953488542
0.00018926214645880411
0.000215862351253392
0.00023832477223896753
0.00025495236087323323
0.0002645696733962097
0.0002667116190999342
0.0002616941837827971
0.00025054473890979084
0.00023480388739500067
0.00021624387243305865
0.0001965694918320634
0.00017716919811073555
0.00015896636857914032
0.00014239016310969946
0.00012745255466311878
0.00011389340731502682
0.00010134528437999812
8.947464796849854e-05
7.807188533656414e-05
6.708223451224204e-05
5.658659577024791e-05
4.6751277837987616e-05
3.776797970987371e-05
2.9801386384552193e-05
2.2954606155960143e-05
1.7255237540282298e-05
1.2659173858646826e-05
9.066191781327328e-06
6.340772476609984e-06
4.33272082100578e-06
2.8940691126018594e-06
1.8907161191475342e-06
1.208791419465854e-06
7.566745870123948e-07
4.6397982026940686e-07
2.787926812966661e-07
1.6419555066437943e-07
9.479189355127815e-08
5.363474541260667e-08
2.973000043740725e-08
1.6130891275967403e-08
8.555705612961744e-09
4.4270220217150405e-09
2.2282275990487414e-09
1.0864868602124315e-09
5.103929536222418e-10
2.2937950429634675e-10
9.789704418974576e-11
3.959708945290374e-11
1.556390261828516e-11
6.637762155551982e-12
3.8000694719854425e-12
3.0662319164833063e-12
2.8433136650431353e-12
2.6052022665850447e-12
2.2551257531900583e-12
1.8367145612985448e-12
1.4153950319842064e-12
1.0386481194801021e-12
7.296376542276584e-13
4.925962193540193e-13
3.2046797946827325e-13
2.012320852341958e-13
1.2205236426292908e-13
7.150253760872786e-14
4.043831793484929e-14
2.206744268767916e-14
1.1629978218038197e-14
5.9504821385218435e-15
3.0032457198919687e-15
1.5512106927939344e-15
8.727210472107824e-16
5.678771377214159e-16
4.283220802165466e-16
3.537528582745405e-16
3.0094679449750904e-16
2.5433871758807133e-16
2.101879477331464e-16
1.6882838035589585e-16
1.3137735545133687e-16
9.865830904686232e-17
7.105406563117012e-17
4.863691784998765e-17
3.130002902741154e-17
1.881735928772402e-17
1.0849476267225438e-17
6.9377165763561305e-18
6.521186717890604e-18
8.99020192167222e-18
1.3768743013832744e-17
2.0405591035352332e-17
2.865326707597589e-17
3.852558581488679e-17
5.034381649173959e-17
6.480024245898354e-17
8.307777680976329e-17
1.0705862625573985e-16
1.3963064161347557e-16
1.8505723067575987e-16
2.493183377262273e-16
3.402608145932742e-16
4.673245831728143e-16
6.405515521283233e-16
8.685663480757507e-16
1.1552930884987341e-15
1.4954238873585334e-15
1.869204429071121e-15
2.238109705200094e-15
2.544628790786794e-15
2.7218094147237828e-15
2.7214394517794797e-15
2.573445700849226e-15
2.492353451960158e-15
3.047626807921238e-15
5.410335062931668e-15
1.167453161302474e-14
2.5222876925363842e-14
5.105791923205991e-14
9.595204709095751e-14
1.681874987578099e-13
2.7658488478633763e-13
4.285003684687407e-13
6.265886379236293e-13
8.645065661185709e-13
1.1225446859449857e-12
1.3656292746999837e-12
1.5484431106993496e-12
1.6357209955494868e-12
1.6502125875535056e-12
1.766838800936581e-12
2.4813554724769195e-12
4.9027703853723355e-12
1.1271285178419707e-11
2.5936265481908832e-11
5.7344483247974655e-11
1.2228469608235088e-10
2.550563636046746e-10
5.269353197341452e-10
1.0861199919871063e-09
2.236356621058557e-09
4.584951383417283e-09
9.309121056300129e-09
1.861433732495792e-08
3.6488983298084196e-08
6.989362965921417e-08
1.3055483553976466e-07
2.3755308702879915e-07
4.2088893754053446e-07
7.261642575836166e-07
1.2204094848379916e-06
1.998908068932525e-06
3.1926080341619106e-06
4.975372319192845e-06
7.569927848619716e-06
1.1250977593273562e-05
1.6343621063176428e-05
2.321509914523665e-05
3.2258071189570937e-05
4.3864268226115606e-05
5.8388510182859505e-05
7.610467480463868e-05
9.715704981203311e-05
0.00012151221836758871
0.00014891776603616
0.00017887425286191924
0.00021062588156471696
0.00024317326096509384
0.00027530909314190473
0.00030567516234689015
0.0003328372455138097
0.00035537371496461147
0.0003719733861082473
0.00038153789436357196
0.00038328280486579563
0.0003768293834559701
0.0003622758841633036
0.00034023463384909915
0.0003118210065985437
0.0002785843169339275
0.0002423793616218662
0.00020518960331880238
0.00016892569263611136
0.0001352319566371345
0.00010533491354973078
7.996025073526481e-05
5.9329621132268057e-05
4.3230490330103835e-05
3.113672764558001e-05
2.234930446539357e-05
1.6127194318736083e-05
1.1786928195811648e-05
8.761433026712598e-06
6.620362607457951e-06
5.0618612798442585e-06
3.888419093745564e-06
2.978003705417232e-06
2.2579178452281245e-06
1.6848098745857878e-06
1.2312511059737789e-06
8.77692714482222e-07
6.081755000249452e-07
4.0837486750709975e-07
2.6497049287717986e-07
1.656868863449238e-07
9.959287373427862e-08
5.740456165917845e-08
3.165091570632143e-08
1.66538958850522e-08
8.34465713373749e-09
3.9765766319242455e-09
1.8044606733720713e-09
7.856707581302121e-10
3.355813953532216e-10
1.4746975573087787e-10
7.150795686738436e-11
4.0072138772363525e-11
2.527274924478849e-11
1.674314792863581e-11
1.1029230333134089e-11
7.031564804987113e-12
4.3011685027621676e-12
2.5251833948694537e-12
1.4292556572680186e-12
7.848948001812172e-13
4.2122824756772924e-13
2.2249039807849834e-13
1.163675539428981e-13
6.051658509238897e-14
3.134219140229437e-14
1.6150413973622417e-14
8.256170881738593e-15
4.170378407603773e-15
2.0723151376910008e-15
1.0086909275028118e-15
4.793291682472233e-16
2.2203413951797396e-16
1.0011330526951831e-16
4.355825848942923e-17
1.789199993433072e-17
2.1329728256339544e-17
8.53060457093334e-18
3.304860194921352e-18
9.987232198974801e-19
9.539569339373358e-20
1.0958857807168443e-19
5.708582330824603e-19
1.3241884155139628e-18
3.4171015658820938e-18
9.701196652203814e-18
2.5916689624480292e-17
6.55047922715663e-17
1.6327426812667942e-16
4.0582409899055836e-16
9.965447546744818e-16
2.397317273075166e-15
5.627766069966174e-15
1.2841544151010657e-14
2.8297668628300615e-14
5.970662275185705e-14
1.1944746940263125e-13
2.239926430214032e-13
3.878360380106755e-13
6.062077258185947e-13
8.234809509745999e-13
9.048758119500934e-13
6.977764923686663e-13
4.390010665386294e-13
2.109548424320665e-12
1.29271878863984e-11
5.3004035565703484e-11
1.7013772063652778e-10
4.6538734551566925e-10
1.132906837059232e-09
2.5156712999692726e-09
5.1743125914096525e-09
9.9583553980616e-09
1.805735668030347e-08
3.099587339320583e-08
5.0529329534627256e-08
7.841809601305472e-08
1.1613929696107697e-07
1.6478142132340146e-07
2.2567800358139773e-07
3.0273505022173455e-07
4.0775505814378566e-07
5.701200703447326e-07
8.516930563631477e-07
1.3665512424794926e-06
2.3032364954614955e-06
3.944970727413887e-06
6.681365606773454e-06
1.1004243238036184e-05
1.748079770135507e-05
2.66996815604306e-05
3.9189625220773774e-05
5.5315638167924926e-05
7.516429529889572e-05
9.84363453638328e-05
0.0001243705078385549
0.00015172464338640367
0.00017883683046355462
0.00020377723515337278
0.0002245821852689285
0.00023953811338421632
0.00024746190447809326
0.0002479139891470543
0.00024128767067246382
0.00022874376520339162
0.00021199780504012875
0.0001930062814734971
0.00017362559935814667
0.0001553231437469594
0.0001390022539191272
0.00012496842528235546
0.00011302476281703132
0.00010265332964661135
9.322423710124065e-05
8.417808003173454e-05
7.514523639292475e-05
6.598952643885091e-05
5.678547960552975e-05
4.775232511360687e-05
3.91719733236525e-05
3.131424970614535e-05
2.438397270338309e-05
1.849488749986125e-05
1.3667780420263195e-05
9.845637571276696e-06
6.917468761410809e-06
4.7435332985404865e-06
3.177025842075884e-06
2.079793535106469e-06
1.331701738785973e-06
8.345707948752595e-07
5.121902408921235e-07
3.0796178475542197e-07
1.8145491050397293e-07
1.0477461278329128e-07
5.927055932571766e-08
3.28269806633615e-08
1.777976914129064e-08
9.399940638184509e-09
4.8375318959439535e-09
2.4134806064839024e-09
1.1602810489427281e-09
5.326906920106644e-10
2.3037605948265274e-10
9.187430553994331e-11
3.268408823984447e-11
9.945499196370687e-12
2.7470320687327007e-12
1.4015876997788433e-12
1.7523913463895096e-12
2.234957367740645e-12
2.41303366284195e-12
2.2820838639597106e-12
1.959955766408402e-12
1.5649133537932958e-12
1.1789563650793612e-12
8.461129673198404e-13
5.821569741944634e-13
3.8564925304377545e-13
2.466890980018065e-13
1.5268167955562139e-13
9.157241415468625e-14
5.330225714235377e-14
3.0180720244865e-14
1.66968092734994e-14
9.104541143778323e-15