# vtk DataFile Version 4.1 
COMMENT
ASCII
DATASET STRUCTURED_POINTS 
DIMENSIONS 300 300 1 
ORIGIN 0 0 0
SPACING 0.020943951023931952 0.020943951023931952 0 
POINT_DATA 90000
SCALARS U double 1
LOOKUP_TABLE default
2.9985078627024594e-19
5.578592219201694e-19
8.237789465751603e-19
9.922736115151715e-19
1.969479447547295e-18
5.573107939734476e-18
1.4676477780229766e-17
3.5728769369784313e-17
8.586870200264432e-17
2.0798585522456766e-16
5.035842697584184e-16
1.2097779922389796e-15
2.8809183294499724e-15
6.808733325683327e-15
1.5980442915072293e-14
3.724400550589739e-14
8.614975030994404e-14
1.9763155507996012e-13
4.4922680090196797e-13
1.0107993754425161e-12
2.2493342423544198e-12
4.945967184630317e-12
1.0736817396349204e-11
2.2989581088672414e-11
4.850705103818792e-11
1.0075704221342697e-10
2.0583689025821985e-10
4.1318024269500303e-10
8.141998519568797e-10
1.5736952145405896e-09
2.9808907799005495e-09
5.529117923818902e-09
1.003467682435108e-08
1.780488301436597e-08
3.0860371592913e-08
5.220414457310037e-08
8.610605288245436e-08
1.3833432137743288e-07
2.162181351672311e-07
3.2837970124745793e-07
4.839572219326739e-07
6.911922716069261e-07
9.55418664105832e-07
1.276781798095338e-06
1.6483884227081605e-06
2.055888666630155e-06
2.4794883051055475e-06
2.898842374021244e-06
3.3001198679632706e-06
3.6830255156054283e-06
4.064393572921413e-06
4.475018936489248e-06
4.948308623625978e-06
5.502979693309618e-06
6.12617586432532e-06
6.766002803722398e-06
7.341664333105608e-06
7.774419411764405e-06
8.034718500986495e-06
8.193062419680928e-06
8.457755377755648e-06
9.183998852290638e-06
1.0845563002476367e-05
1.3970158052094875e-05
1.904911193160782e-05
2.643812761934332e-05
3.626757318861866e-05
4.837859975018511e-05
6.229697502158177e-05
7.72512386856289e-05
9.223614671785256e-05
0.0001061162329001862
0.00011775765694905286
0.0001261701539413483
0.00013063660397030056
0.00013080751014550587
0.00012674268726642712
0.0001188922316150418
0.00010802109211311401
9.509296603798809e-05
8.113663523145586e-05
6.711939243146397e-05
5.384792902783598e-05
4.190872850928571e-05
3.165033321103691e-05
2.3201466606594993e-05
1.6513682112838373e-05
1.1415542312631632e-05
7.666784003697087e-06
5.004305681609258e-06
3.175791274610761e-06
1.96028794343033e-06
1.1774840567994197e-06
6.886499081867791e-07
3.924059705293572e-07
2.1802657269635942e-07
1.1823249817365396e-07
6.265091357447116e-08
3.24865475792254e-08
1.6512822577837992e-08
8.244952206993943e-09
4.053926538844145e-09
1.968464776343751e-09
9.470296718450123e-10
4.531064225601643e-10
2.1652695027492465e-10
1.0388913807350897e-10
5.038193571018786e-11
2.4912289083285146e-11
1.2697489373962922e-11
6.750278328051415e-12
3.7788555436724235e-12
2.234447662222168e-12
1.3878790420953159e-12
8.944255070494602e-13
5.892308175007437e-13
3.914117375942166e-13
2.5935739184561993e-13
1.7007099791092464e-13
1.0971280084376351e-13
6.928353876994636e-14
4.2615531694334545e-14
2.5375064768075935e-14
1.4503834844638365e-14
7.859471718181741e-15
3.960008935476238e-15
1.7951184219159765e-15
6.87121911841238e-16
1.906069892550416e-16
2.1155651150339336e-17
4.9998677795984184e-18
4.3164344572118926e-17
8.557620309331578e-17
1.1228085212376363e-16
1.2005296290603024e-16
1.1331645068172083e-16
9.852817292394153e-17
8.122546441046806e-17
6.494460427747046e-17
5.127445803391097e-17
4.043818162251769e-17
3.197270226773203e-17
2.5260476673375978e-17
1.9825084115626692e-17
1.541109883907517e-17
1.19253288576783e-17
9.328762151411073e-18
7.550349037653827e-18
6.460325936578953e-18
5.905794831399662e-18
5.78509357747503e-18
6.126203179015155e-18
7.139203363083245e-18
9.229965456597437e-18
1.2984605256175542e-17
1.9153056624041925e-17
2.866803951867646e-17
4.2728555262756774e-17
6.295483244552025e-17
9.158793270699952e-17
1.316678832965197e-16
1.8708639596327202e-16
2.623823783894644e-16
3.621412946204676e-16
4.898876681207369e-16
6.464434721486e-16
8.278888024918091e-16
1.023533572109312e-15
1.2147183150810066e-15
1.3758300544599871e-15
1.4796490411759603e-15
1.5100014776291458e-15
1.485589074291016e-15
1.4996219450829629e-15
1.780242573496448e-15
2.7764637405735025e-15
5.273579947617599e-15
1.0542085972588866e-14
2.0529472723880832e-14
3.812623919276309e-14
6.760189628055898e-14
1.1546812783972734e-13
1.9239380681639113e-13
3.175808952772417e-13
5.286051069024657e-13
9.028444538083635e-13
1.6025145010780619e-12
2.9661113613306907e-12
5.688112876547819e-12
1.1161173730322117e-11
2.21077046874546e-11
4.370888987320245e-11
8.555632879230507e-11
1.6490664544772962e-10
3.1190121041405693e-10
5.77585390280118e-10
1.0456507501837419e-09
1.848708953764552e-09
3.189422722310053e-09
5.365779387458469e-09
8.798031382365474e-09
1.4052265854466915e-08
2.1852266539098726e-08
3.306752967624026e-08
4.8661384795000016e-08
6.957970729853525e-08
9.655860141275959e-08
1.2983056969606665e-07
1.6871724165841469e-07
2.1112103727476434e-07
2.5298229969420317e-07
2.878718803602553e-07
3.070615153417208e-07
3.0066328440851636e-07
2.607318468500795e-07
1.8750421027246792e-07
1.0007305363984936e-07
5.255993166966055e-08
1.560755051745414e-07
6.052988444974012e-07
1.7064176600510034e-06
3.900729752080658e-06
7.775956470909052e-06
1.4055998114078589e-05
2.3560253578474728e-05
3.7126373272474904e-05
5.549571391678422e-05
7.916859104588863e-05
0.00010824577500501488
0.00014228186243797576
0.0001801827477758752
0.00022018057510083574
0.00025991276379178926
0.00029661592052729357
0.0003274222122225106
0.00034971973713826483
0.0003615167119769207
0.000361739440621586
0.00035040117614809814
0.00032860334041675334
0.00029836653738247727
0.0002623264492208796
0.00022335813104353136
0.0001842034853300978
0.00014716862816986425
0.00011393449950742572
8.549372895990804e-05
6.219868675681867e-05
4.388678821069204e-05
3.0042335478655673e-05
1.99582137900731e-05
1.2871652333918966e-05
8.06130821027515e-06
4.904318478123133e-06
2.899591615754525e-06
1.667099101355399e-06
9.330951627591039e-07
5.093553930999274e-07
2.7194100813165924e-07
1.4255404836009296e-07
7.369956443322109e-08
3.770960276277412e-08
1.909783411890783e-08
9.515912754220962e-09
4.6001679785166476e-09
2.108780241546803e-09
8.865784739572705e-10
3.249226523470997e-10
9.487147167611861e-11
1.8259357347268e-11
2.661027976907832e-12
4.85947993354303e-12
8.271065733900258e-12
8.906487111722154e-12
7.391830278669918e-12
5.169560904478238e-12
3.191883356079299e-12
1.795391729361395e-12
9.465956272886116e-13
4.830838601981519e-13
2.4746212583665275e-13
1.3131446949035927e-13
7.30555724259176e-14
4.209517606024702e-14
2.4512278122265162e-14
1.4107726121970827e-14
7.916361875275556e-15
4.306590794556765e-15
2.2708578656145277e-15
1.1642103815084527e-15
5.832061568263036e-16
2.8714185415621335e-16
1.3968235620115472e-16
6.735050578059865e-17
3.22760814331126e-17
1.5532840963568435e-17
7.655088677416633e-18
3.813012810270365e-18
1.7112269720818448e-18
5.857122598870387e-19
1.1318583988520962e-18
8.269930280350068e-19
4.674875759014327e-19
1.0503133475722277e-19
3.228922453899566e-19
1.6274855683057611e-18
4.329892057382358e-18
9.911958850787911e-18
2.389969472527798e-17
6.049136683042507e-17
1.5266954643589417e-16
3.787082590708984e-16
9.285797869010483e-16
2.2618445794481796e-15
5.478643228397993e-15
1.3190819531733075e-14
3.154884913915907e-14
7.488633715016055e-14
1.762006209349617e-13
4.1047422768666676e-13
9.458223704078073e-13
2.153820515840855e-12
4.843012187908848e-12
1.0742870477932801e-11
2.3484413319746056e-11
5.0539683005887625e-11
1.069597406744323e-10
2.2238178768555381e-10
4.5377780846065873e-10
9.079115489563446e-10
1.7795277359090412e-09
3.413820178585851e-09
6.404252835801229e-09
1.173823388012247e-08
2.1001405220229103e-08
3.66432251968491e-08
6.228812176072549e-08
1.0304441074457421e-07
1.6571763434591348e-07
2.587844157849265e-07
3.9194882037179936e-07
5.751213102006142e-07
8.167724084171201e-07
1.1218437946080257e-06
1.4897202284613026e-06
1.9130616842436082e-06
2.378366639843037e-06
2.86876904078853e-06
3.368674428075921e-06
3.868616201241772e-06
4.367719444225932e-06
4.87116264434352e-06
5.381602917622992e-06
5.886573212440913e-06
6.3473097278939455e-06
6.696550014930061e-06
6.851877308002015e-06
6.746622165168405e-06
6.37338473327994e-06
5.828627861160292e-06
5.343532647969409e-06
5.288179780079138e-06
6.142657549631756e-06
8.437383836303593e-06
1.267250057277331e-05
1.9230300801252925e-05
2.8294859555665977e-05
3.9790696650280544e-05
5.3349319744054835e-05
6.831002143421057e-05
8.375904406877318e-05
9.860789055910277e-05
0.00011170605429063948
0.00012197602226468096
0.000128551032621271
0.00013089169147536148
0.0001288587044876576
0.0001227264153394427
0.00011313398413775422
0.00010098445753659784
8.73127200294612e-05
7.314837713119397e-05
5.939799577156487e-05
4.6763958229030885e-05
3.570712334256044e-05
2.6450601792536843e-05
1.901468795290803e-05
1.3269552069359867e-05
8.992569419771425e-06
5.920085067724808e-06
3.787538680124913e-06
2.3558943898616473e-06
1.4253782964728737e-06
8.392930798145893e-07
4.81254839951737e-07
2.689226275552981e-07
1.4656724855837512e-07
7.798918256794162e-08
4.0562383690501016e-08
2.0648510755486484e-08
1.0303843833766388e-08
5.0490442890731835e-09
2.4342092206153643e-09
1.157128163803687e-09
5.436999205748023e-10
2.533034523627033e-10
1.175227532292986e-10
5.466858059735609e-11
2.5773922485991145e-11
1.251801513610699e-11
6.3964768811043914e-12
3.5078246271125693e-12
2.0825112581091574e-12
1.3268001185686999e-12
8.879166227383743e-13
6.094099239340448e-13
4.2075111420106955e-13
2.8839131834080843e-13
1.945876214137083e-13
1.2852949417397815e-13
8.275080627083518e-14
5.1709908680830474e-14
3.1199813983604016e-14
1.804764978840756e-14
9.906584434127357e-15
5.081630573143863e-15
2.378813950620019e-15
9.788754232959428e-16
3.361312649094122e-16
1.003365927149853e-16
5.767991247966933e-17
8.678743718550042e-17
1.2625879645836149e-16
1.5113683187791435e-16
1.5643014159492808e-16
1.462348584055091e-16
1.2720174445504829e-16
1.0519166787798804e-16
8.40639256971334e-17
6.569932121813854e-17
5.0571342618337443e-17
3.84106226134874e-17
2.8720185235579947e-17
2.1063080609819713e-17
1.514872011367616e-17
1.0793626205610771e-17
7.83936241404545e-18
6.090820725194141e-18
5.306435947607278e-18
5.240201258236888e-18
5.712333360257192e-18
6.67626344244789e-18
8.255375960741501e-18
1.0740317101105285e-17
1.4559911232487085e-17
2.0257240786021252e-17
2.850960247455337e-17
4.022229853171509e-17
5.670127220023172e-17
7.987226175982085e-17
1.1247125054351984e-16
1.5809120003331698e-16
2.209433238564614e-16
3.0518898001673344e-16
4.13734336113154e-16
5.464707244598038e-16
6.981080019545588e-16
8.560066991836596e-16
9.98787326180676e-16
1.0969985352533519e-15
1.1177681257495129e-15
1.0361338991070353e-15
8.566209416993494e-16
6.495356110018449e-16
6.073250678462772e-16
1.1272739911836001e-15
2.9283166290476166e-15
7.213627666310684e-15
1.590160732188036e-14
3.1976681898196987e-14
6.008093255816658e-14
1.0762416950618359e-13
1.870235311146966e-13
3.2036413673792944e-13
5.491152504317602e-13
9.541148460145372e-13
1.6958642320913948e-12
3.0939914924563647e-12
5.780393052238562e-12
1.098743041565338e-11
2.1076860974824817e-11
4.048472445117245e-11
7.736011708205102e-11
1.4631607038745327e-10
2.7288272297845313e-10
5.0043014299062e-10
9.004506302505099e-10
1.5870529348241538e-09
2.7361684128024675e-09
4.609106896480636e-09
7.578525507991692e-09
1.2152430941689058e-08
1.8988484146545706e-08
2.888675983173526e-08
4.2744629206566276e-08
6.14533384956958e-08
8.571350343860447e-08
1.1574861609290159e-07
1.509063027102397e-07
1.8916423929275564e-07
2.2661304040377918e-07
2.5708668976618544e-07
2.7226495667021065e-07
2.6278294470224364e-07
2.2112590222963916e-07
1.4729803036766527e-07
5.832125575339329e-08
2.398560015603319e-09
7.792432731062292e-08
4.5636170908281536e-07
1.406382049344678e-06
3.3147923402033004e-06
6.698048725551525e-06
1.2197061556143038e-05
2.0548050319098982e-05
3.252383509000245e-05
4.884343045311105e-05
7.005318921210809e-05
9.638974164139477e-05
0.00012764278621987257
0.00016304288669379525
0.0002012035478355239
0.00024014533724515561
0.0002774205821319055
0.00031033985987793564
0.0003362785956832279
0.0003530190103095826
0.0003590665832513886
0.0003538775641054873
0.00033794787877437673
0.00031274180364298084
0.00028047374519862004
0.00024378837118664136
0.0002054040430896936
0.00016778696983530623
0.0001329094172788244
0.00010212036375243581
7.612941405311513e-05
5.5082245917697934e-05
3.8693110151151875e-05
2.6397867508189865e-05
1.749744940693231e-05
1.127253055743639e-05
7.061633556175373e-06
4.304019026272456e-06
2.554281237384482e-06
1.4776581018067987e-06
8.345883902713551e-07
4.611719758950264e-07
2.4991396849465256e-07
1.3311052955630262e-07
6.975178924489322e-08
3.59011143848833e-08
1.8047259582542928e-08
8.766868090655537e-09
4.050109987846549e-09
1.741866804147096e-09
6.796001402805621e-10
2.3524021576272446e-10
7.491086853682811e-11
2.9555249091036697e-11
2.1339786167367592e-11
1.9994089788935773e-11
1.7217738917998464e-11
1.2832698390631888e-11
8.374070503785863e-12
4.873856251168938e-12
2.5769924052722054e-12
1.266806802104415e-12
6.007912459881876e-13
2.9110553833343274e-13
1.533263139645529e-13
8.97214190550644e-14
5.6245735466589236e-14
3.5748997289472474e-14
2.2178906205794203e-14
1.3207874579140106e-14
7.522999573277468e-15
4.111030794468039e-15
2.1688296386983356e-15
1.11319769912157e-15
5.604519949873091e-16
2.788935043473118e-16
1.3805450585301132e-16
6.835588189302959e-17
3.4038169230174626e-17
1.7069505204457082e-17
8.496688451455459e-18
4.0805615136162076e-18
1.9490699609248204e-18
2.813120728111084e-18
1.5217375621299674e-18
6.196511532314086e-19
1.319150619802012e-19
2.490808750989554e-19
7.8884372195755185e-19
1.3705664797010763e-18
2.3991342853438486e-18
6.059911580681297e-18
1.7074693453611728e-17
4.528937770757312e-17
1.1493280232926226e-16
2.8870304361091444e-16
7.244905972616036e-16
1.8120751611638106e-15
4.5097814668628755e-15
1.1163252614082248e-14
2.7452088699331098e-14
6.694239231909069e-14
1.6161464171681432e-13
3.859189223965644e-13
9.10882996787417e-13
2.123530530059538e-12
4.88495491949704e-12
1.1075674563039558e-11
2.4720971695480578e-11
5.425476423171548e-11
1.1695126598056939e-10
2.473488213858697e-10
5.127614545975867e-10
1.040872979966672e-09
2.0670041617299998e-09
4.011749334444266e-09
7.602573603171682e-09
1.4054014677375058e-08
2.531746558592314e-08
4.439900941238455e-08
7.571798829231036e-08
1.254375980920575e-07
2.016459270497775e-07
3.1421728882438273e-07
4.7416988733221736e-07
6.923971350522789e-07
9.778183705354221e-07
1.3352621573047673e-06
1.7636802060280246e-06
2.2554298250367584e-06
2.7971651264101757e-06
3.3722387531112476e-06
3.9635693986707025e-06
4.555118293316273e-06
5.130078702360755e-06
5.665114594554626e-06
6.1224130924430724e-06
6.4440406839917866e-06
6.554600304882837e-06
6.377065689724609e-06
5.862538233107357e-06
5.02872589435843e-06
3.996660793494768e-06
3.0131585418336757e-06
2.449084859098913e-06
2.769800577761457e-06
4.481571200651739e-06
8.06321756519031e-06
1.3894063592773865e-05
2.218765779322236e-05
3.29378800330102e-05
4.588223068330467e-05
6.048736009120434e-05
7.596323721058958e-05
9.131236707471859e-05
0.00010541688231481765
0.00011715862516379156
0.0001255573978206941
0.00012990407372674443
0.00012986205599980122
0.0001255147945806987
0.00011734812773891331
0.00010617089311280804
9.299102869257286e-05
7.887316305119824e-05
6.480528338784231e-05
5.159676114211603e-05
3.982017302539179e-05
2.979832137889064e-05
2.1628702723247915e-05
1.5232293905085642e-05
1.0412333938938269e-05
6.910955226060596e-06
4.455581877121166e-06
2.791444948602349e-06
1.7002399520248703e-06
1.007317653150861e-06
5.808193998738231e-07
3.261421230057752e-07
1.7847186215283186e-07
9.525143384972152e-08
4.962376856097773e-08
2.5260003542111827e-08
1.2575733085019088e-08
6.129530434240898e-09
2.9278136477779397e-09
1.3718115326832009e-09
6.311129447877995e-10
2.854602975396139e-10
1.2724437469288044e-10
5.6182958883261204e-11
2.484583791021705e-11
1.1248701522063125e-11
5.405253511845398e-12
2.8750444148858897e-12
1.7303916542439556e-12
1.1577271240548766e-12
8.249825003111397e-13
6.015031118054412e-13
4.3725264579701387e-13
3.125359043609044e-13
2.1814252214154768e-13
1.4814119657233982e-13
9.763888996895534e-14
6.229821835854128e-14
3.8352531814925716e-14
2.2676752048308358e-14
1.279703622043872e-14
6.8369596134895134e-15
3.4272990345306535e-15
1.6051183644243578e-15
7.185325570300806e-16
3.4486842696780195e-16
2.242783894960933e-16
2.079806228548526e-16
2.1922663848391966e-16
2.249179370831335e-16
2.1591562205610789e-16
1.9424309235890908e-16
1.6551735019515064e-16
1.3509387264485662e-16
1.0661239558047662e-16
8.189215578626107e-17
6.141778437818936e-17
4.493907712604583e-17
3.194251763680941e-17
2.1920022293650263e-17
1.445981331039861e-17
9.227476637635443e-18
5.909272638733671e-18
4.171198145595197e-18
3.659479385439666e-18
4.041026178076232e-18
5.0630030064018204e-18
6.603471837261384e-18
8.691162719579448e-18
1.1489128877275077e-17
1.52581322210798e-17
2.0332934616810045e-17
2.7150586293392576e-17
3.635953734587133e-17
4.9011537000016317e-17
6.679892262686586e-17
9.22557244334115e-17
1.2880196735982492e-16
1.8048772066168057e-16
2.512984295333807e-16
3.439277511318827e-16
4.580205404281952e-16
5.880487496087778e-16
7.21218575672994e-16
8.3612999466982e-16
9.033322456214794e-16
8.894542833183745e-16
7.672518565978941e-16
5.347182061887222e-16
2.47380335900558e-16
6.912899954660277e-17
3.4867351685491473e-16
1.731739063204044e-15
5.325389558451661e-15
1.2944877138635345e-14
2.750484476054584e-14
5.368507005904005e-14
9.914421156509453e-14
1.7684519569809637e-13
3.09627351599379e-13
5.392613601183694e-13
9.443066115563979e-13
1.6749689733952818e-12
3.020246050610051e-12
5.5353150843667375e-12
1.0279109967618594e-11
1.9248832615743802e-11
3.6156960458588386e-11
6.778511332452178e-11
1.2627387960721679e-10
2.3286675930892284e-10
4.2380159113001937e-10
7.591873807375622e-10
1.3357299517873449e-09
2.3039373591512015e-09
3.889758120779453e-09
6.419267081138511e-09
1.0342817978613662e-08
1.6251920017749238e-08
2.4878041801080453e-08
3.705797540818905e-08
5.3646150592971004e-08
7.535195572434404e-08
1.0248245736271677e-07
1.3458247790508704e-07
1.699917913089171e-07
2.0539275379606e-07
2.355115832358388e-07
2.532701527995628e-07
2.5085910262820864e-07
2.2239267040085563e-07
1.689559267696114e-07
1.068790396921558e-07
7.986445996191422e-08
1.7505656471838853e-07
5.422391581664378e-07
1.41412969035778e-06
3.12437812573221e-06
6.11863260903223e-06
1.0953200479406447e-05
1.82756882890535e-05
2.8782779457523075e-05
4.3152210618128274e-05
6.194925048065667e-05
8.551273492703552e-05
0.00011383187958852662
0.00014643198228864857
0.00018229313801672547
0.00021982873942246893
0.00025694710018480245
0.0002912082417153497
0.00032006924519063166
0.00034118917807329525
0.00035274465356221384
0.0003536965251166062
0.000343952087110581
0.00032438620013718717
0.00029671460573591434
0.00026324504333036003
0.00022655730660772652
0.00018917507081431283
0.00015328787055468625
0.00012056383868413115
9.206921192895667e-05
6.828667621437467e-05
4.9207325062433065e-05
3.4463192905073925e-05
2.3468577652157718e-05
1.5545932124738545e-05
1.0022353272008028e-05
6.292429929193826e-06
3.850412495394935e-06
2.2986649209501756e-06
1.3405061357352882e-06
7.647404374250691e-07
4.2739798845367586e-07
2.3423822607746406e-07
1.2588094417786654e-07
6.620954769128871e-08
3.393595305909914e-08
1.6832364674363347e-08
8.005932005150732e-09
3.6170196820458644e-09
1.5446783212877929e-09
6.31621343283103e-10
2.624691780488867e-10
1.256211974721785e-10
7.563074688498188e-11
5.27629607748064e-11
3.7129911415780395e-11
2.4405303694239546e-11
1.4581758363047787e-11
7.861323003359153e-12
3.823947212682139e-12
1.6918933488520976e-12
7.028107379726362e-13
2.9985118649498087e-13
1.5265496745935485e-13
9.838748159301701e-14
7.136906339508463e-14
5.141372196973339e-14
3.490833436428482e-14
2.2116902199082704e-14
1.3142082519658433e-14
7.39444299965788e-15
3.982795846000429e-15
2.077168020968739e-15
1.0610861239545222e-15
5.367245266957383e-16
2.713291870356732e-16
1.3799835726821861e-16
7.082959854243754e-17
3.661620933086732e-17
1.8931509243761315e-17
9.755843178950869e-18
5.1129238117102524e-18
6.5645712319715496e-18
3.4395698436333767e-18
1.6548273231806375e-18
8.410540478780877e-19
6.864403221891821e-19
6.665401586648253e-19
4.1931551524085643e-19
3.117756127523139e-19
1.417112257188776e-18
5.0504701961903876e-18
1.3450240319951107e-17
3.3608845905407404e-17
8.602338768730778e-17
2.2339460358764905e-16
5.777669780120363e-16
1.486271661532161e-15
3.812389239113106e-15
9.733015830517696e-15
2.4637898341968662e-14
6.169785384452012e-14
1.527670720806535e-13
3.7400291084346903e-13
9.048790886235411e-13
2.161216452046235e-12
5.088457466813832e-12
1.1793281924842515e-11
2.687035358272058e-11
6.011520452989975e-11
1.3191262625391373e-10
2.836090176146192e-10
5.96813040245709e-10
1.2280080796002959e-09
2.4681515427260108e-09
4.84074217683547e-09
9.255040072759568e-09
1.7231356391309262e-08
3.120866594096634e-08
5.492612588712273e-08
9.383489940264044e-08
1.5544487122101563e-07
2.4945212387553023e-07
3.8745162471801755e-07
5.82052988101672e-07
8.453232533682148e-07
1.1866902868483712e-06
1.6107048286022515e-06
2.115254339222651e-06
2.6907810623364883e-06
3.3206666076587777e-06
3.98227448013662e-06
4.6475183200389825e-06
5.281755732994157e-06
5.840708601172187e-06
6.266927741190862e-06
6.489312207937106e-06
6.430113097421892e-06
6.022574135253763e-06
5.238688072885634e-06
4.121656704091279e-06
2.813755475298122e-06
1.5695898802985845e-06
7.480080928493227e-07
7.819977005203055e-07
2.132004612543147e-06
5.2314733938336974e-06
1.0432791324138919e-05
1.7958318139659866e-05
2.7857585312424516e-05
3.997083035658632e-05
5.390179125300911e-05
6.900756333906595e-05
8.441690685571286e-05
9.908727291039006e-05
0.00011190354915724617
0.0001218096961448202
0.00012795219571584208
0.00012980651652275203
0.0001272581837641132
0.0001206191068014106
0.00011057490169324175
9.807522956607727e-05
8.419161080905261e-05
6.997235351945214e-05
5.6321408909163405e-05
4.391897997027225e-05
3.31899821424059e-05
2.431559012384173e-05
1.7275712712586092e-05
1.1907349683443327e-05
7.964935857552983e-06
5.172547725816473e-06
3.262552432509423e-06
1.9995287755425915e-06
1.1912804642371218e-06
6.902873409729461e-07
3.8922768689175144e-07
2.1368697656565429e-07
1.142893944979457e-07
5.9585787447356543e-08
3.029921608783788e-08
1.503418554872154e-08
7.2816145547295464e-09
3.4427266949292306e-09
1.5884437983255736e-09
7.146674358951598e-10
3.1317261787732913e-10
1.3350476158027015e-10
5.538361330758126e-11
2.2495195430063167e-11
9.148453550465581e-12
3.943797484409014e-12
1.9810533679467895e-12
1.234764318357092e-12
9.10616045142754e-13
7.203866762894149e-13
5.722134340782735e-13
4.436658657901111e-13
3.3279012491552525e-13
2.410738695350437e-13
1.6870847621426456e-13
1.1410850324666888e-13
7.458067928199507e-14
4.706005073486799e-14
2.8619810077034317e-14
1.6740809405849813e-14
9.405354015400863e-15
5.0852084047802864e-15
2.6771170254368666e-15
1.4200782364166953e-15
8.135212585585227e-16
5.454962909325554e-16
4.3410403470291336e-16
3.8230993097913214e-16
3.4484205383214465e-16
3.0527394394654145e-16
2.6121331957158606e-16
2.1556099806056443e-16
1.7199542220757954e-16
1.3313519140488454e-16
1.0018968284950465e-16
7.327331952752149e-17
5.1883644123644764e-17
3.529524287347977e-17
2.2790747896304365e-17
1.3745054781495196e-17
7.618015008202742e-18
3.914354490574399e-18
2.1540534527608592e-18
1.87365243629216e-18
2.6568992208335113e-18
4.177473275177505e-18
6.231001647347369e-18
8.739489606229641e-18
1.1726540274816944e-17
1.5280839860680155e-17
1.9540747144541125e-17
2.4737071484430346e-17
3.1319551754541886e-17
4.016481435115044e-17
5.2824101381445953e-17
7.172617973072043e-17
1.0021536246921568e-16
1.422880783745591e-16
2.0190488449194512e-16
2.818075719242778e-16
3.818701814506549e-16
4.971632151057347e-16
6.161157574509621e-16
7.194253817491398e-16
7.807002503864036e-16
7.702407663346538e-16
6.639125915890254e-16
4.597819298588768e-16
2.0616527104426302e-16
4.6154768038112573e-17
2.8587678379926797e-16
1.4975509112904663e-15
4.675701184951254e-15
1.1479625118740063e-14
2.4625591649715027e-14
4.855410932459287e-14
9.062108063159102e-14
1.6330279102196747e-13
2.883672190669264e-13
5.048398746349631e-13
8.842345134255977e-13
1.559570434735176e-12
2.7803000479194592e-12
5.015373110840813e-12
9.144425004288446e-12
1.6807254178003525e-11
3.103085199783094e-11
5.732893818651741e-11
1.0557804714854533e-10
1.931182627841372e-10
3.496944719616089e-10
6.250106463208786e-10
1.099743961355136e-09
1.9007388509575147e-09
3.2206038324082724e-09
5.340857964279926e-09
8.655908551601714e-09
1.3692341128203159e-08
2.111428780400991e-08
3.17013429148974e-08
4.628145727505177e-08
6.559908940571976e-08
9.010139569517651e-08
1.1963672669107635e-07
1.5308629524548887e-07
1.8799918296272167e-07
2.2038023867026713e-07
2.44893350795468e-07
2.558825543600191e-07
2.497568478246188e-07
2.293854849703257e-07
2.1114214633970005e-07
2.3504427796404533e-07
3.780009497925787e-07
7.695001818700855e-07
1.6081970107541196e-06
3.1769370708580186e-06
5.8529309788440885e-06
1.0109226152920607e-05
1.650339290644536e-05
2.5649505633168064e-05
3.8170171186085756e-05
5.462681662794556e-05
7.542916172316237e-05
0.00010072922014643296
0.00013031131301437132
0.0001634965203942879
0.00019908563870466166
0.00023536610457520655
0.00027020273136449835
0.00030121837877823687
0.00032605060537400893
0.00034264879204047946
0.00034955990989061684
0.00034614629449840627
0.0003326886528465444
0.00031035052070988594
0.0002810104168100583
0.0002469964160569324
0.00021077676120502336
0.00017466476944822025
0.00014058670052156984
0.00010994169964555972
8.355997000174325e-05
6.174537233070598e-05
4.4375996682703445e-05
3.1032255602845676e-05
2.1125423078108526e-05
1.4007438011021575e-05
9.052047585052061e-06
5.705492368229832e-06
3.510560539696512e-06
2.1106834765794253e-06
1.2412865036923606e-06
7.146612545498227e-07
4.0299696821384216e-07
2.225013341417052e-07
1.201052788131695e-07
6.321248111317706e-08
3.23160047175632e-08
1.5985923628967902e-08
7.63861899182311e-09
3.542373985900642e-09
1.6238395381941508e-09
7.650182503004702e-10
3.8989244022776366e-10
2.20550922059154e-10
1.3433911960778966e-10
8.286749285236988e-11
4.909954737226898e-11
2.7009866968683704e-11
1.3490684416052197e-11
6.001883669822339e-12
2.3301973243859783e-12
7.801408061432262e-13
2.446861710022817e-13
1.1013902708889505e-13
9.254406656315288e-14
8.87404313667742e-14
7.571545207647525e-14
5.658012000463563e-14
3.789052147048825e-14
2.325515914929096e-14
1.332480854180163e-14
7.243831022212815e-15
3.79440689817283e-15
1.9450522290280113e-15
9.906877685502028e-16
5.080045928649052e-16
2.6451795856756056e-16
1.4017887530136912e-16
7.532103129283911e-17
4.0760740305857974e-17
2.21231550309867e-17
1.2058248158433352e-17
1.5170224137960106e-17
8.292970641868235e-18
4.472831604579275e-18
2.5323481981603538e-18
1.5742712545582353e-18
8.941825204412198e-19
2.686646886438122e-19
3.522459650222063e-20
5.947468423259654e-19
1.8902749992097098e-18
3.973667088261576e-18
9.036988044599236e-18
2.42619071880342e-17
6.658464837696788e-17
1.7765164914797164e-16
4.705761560446816e-16
1.2540935763961311e-15
3.3387283315452933e-15
8.793306357159928e-15
2.2845509115751103e-14
5.864618601967401e-14
1.4899668769637535e-13
3.745564856511202e-13
9.301761636312192e-13
2.2775056644693534e-12
5.488215674549201e-12
1.2997235165496148e-11
3.0212341191680856e-11
6.885595955760749e-11
1.536914016995825e-10
3.3561629570146804e-10
7.16244897005488e-10
1.4922711576402546e-09
3.0321030293662402e-09
6.001891613989544e-09
1.1561422495002927e-08
2.1648974246865558e-08
3.936291615047648e-08
6.942041397588054e-08
1.1862624510145544e-07
1.962210006952745e-07
3.1391495931434306e-07
4.853845457088517e-07
7.250536392820032e-07
1.0461296012817794e-06
1.4580963702167303e-06
1.9640997331717327e-06
2.558756161463098e-06
3.22675879698334e-06
3.942253067634342e-06
4.668527023885072e-06
5.357484556981127e-06
5.9489641378610115e-06
6.371191926779529e-06
6.544929584767317e-06
6.394214902512729e-06
5.865166589972581e-06
4.951124488965193e-06
3.718578209504548e-06
2.325852649076595e-06
1.0270834107094069e-06
1.579587678603664e-07
1.0547684337433615e-07
1.268762238380459e-06
4.019272785629525e-06
8.665810908272211e-06
1.5424398598825882e-05
2.4388686358150847e-05
3.549631466953486e-05
4.8491553963180626e-05
6.289264379914444e-05
7.797932165190691e-05
9.281764445690069e-05
0.00010633299046389466
0.00011742916005460381
0.00012513608244419478
0.00012875659636863
0.00012797898067013508
0.00012292824883830287
0.00011414383114888565
0.00010248936142789903
8.901608799255549e-05
7.481035326936463e-05
6.085573696013752e-05
4.793293946605644e-05
3.6568579083303905e-05
2.7031790420411956e-05
1.9368138241004213e-05
1.3455614962994599e-05
9.067367102579266e-06
5.929033551135426e-06
3.7633897502656864e-06
2.3197416291946203e-06
1.3891301559705475e-06
8.084841941969042e-07
4.5752014580436094e-07
2.518498391321122e-07
1.34908085697428e-07
7.034713206278964e-08
3.571632716074426e-08
1.765700917519663e-08
8.497330144342037e-09
3.977783757361562e-09
1.8086737162036008e-09
7.968024680682511e-10
3.38747818238351e-10
1.38146228774354e-10
5.3603131587271105e-11
1.9620623464006965e-11
6.790329086283538e-12
2.3603679757283745e-12
1.0283661127906578e-12
7.084797654132245e-13
6.456791702765262e-13
6.047875430176142e-13
5.363422260831198e-13
4.466966076628234e-13
3.5196437337435997e-13
2.644575324032615e-13
1.9061831807450834e-13
1.3232279794915063e-13
8.867703366742442e-14
5.745085602622837e-14
3.601604273024742e-14
2.1875757860413985e-14
1.2911694649215894e-14
7.457652551702043e-15
4.27818603437661e-15
2.5035677683325644e-15
1.5515984887057454e-15
1.0527163210114052e-15