# vtk DataFile Version 4.1 
COMMENT
ASCII
DATASET STRUCTURED_POINTS 
DIMENSIONS 300 300 1 
ORIGIN 0 0 0
SPACING 0.020943951023931952 0.020943951023931952 0 
POINT_DATA 90000
SCALARS U double 1
LOOKUP_TABLE default
2.3144609838981364e-19
8.89986813305829e-19
2.2577776426629735e-18
4.824475512086519e-18
1.0372122881497164e-17
2.2428897838832044e-17
4.7643183497083024e-17
9.976420080723608e-17
2.079541663527559e-16
4.334488366334655e-16
9.054478985702529e-16
1.901457065973978e-15
4.026877642102322e-15
8.609460008100287e-15
1.8540245651315556e-14
3.998772352552363e-14
8.56805051634737e-14
1.8068247662762572e-13
3.7139532952638905e-13
7.370480485943233e-13
1.3986644701277472e-12
2.5116996797817204e-12
4.2152061608617195e-12
6.499354098327011e-12
8.967547582395026e-12
1.0561792101416257e-11
9.582565865077726e-12
4.892950435854631e-12
1.7207603510472834e-13
1.4520640478854603e-11
1.0453593217591412e-10
4.0502278510781453e-10
1.1979445869444565e-09
3.023189805260873e-09
6.853169054976171e-09
1.4371132702015463e-08
2.8426158614341495e-08
5.378913366849917e-08
9.839907477345056e-08
1.7535018828247624e-07
3.0589414160090093e-07
5.236732112495339e-07
8.802073849051923e-07
1.4512883781558667e-06
2.3433644516398934e-06
3.698251929901157e-06
5.693669858088833e-06
8.536351124823528e-06
1.2444155320022694e-05
1.7614146121962353e-05
2.417550968813743e-05
3.2129862962555985e-05
4.128687545521251e-05
5.120935148877298e-05
6.118712573693631e-05
7.02606204585777e-05
7.730996900939578e-05
8.121279445623316e-05
8.105432358482154e-05
7.635221215735053e-05
6.72426108306536e-05
5.4571197987121906e-05
3.984759868818207e-05
2.5052334991753975e-05
1.2324234578615536e-05
3.5908976590625062e-06
2.2356571034422412e-07
2.793829835779645e-06
1.0984187466407003e-05
2.3665918252930556e-05
3.9118298002913545e-05
5.5334068250938005e-05
7.03438979146901e-05
8.2497789689775e-05
9.0659470403156e-05
9.429380547575039e-05
9.345048540592786e-05
8.866494421019609e-05
8.08075226421306e-05
7.09142786478683e-05
6.0028973708554245e-05
4.907771754699068e-05
3.878780538195986e-05
2.965253306437622e-05
2.1935893767267382e-05
1.570607359123245e-05
1.0884857615535428e-05
7.3010255352382755e-06
4.738665500718965e-06
2.9749910443870305e-06
1.80574537956556e-06
1.0589688297938203e-06
5.99517521440381e-07
3.273108033057419e-07
1.7211168543843584e-07
8.70388459830031e-08
4.226517680349769e-08
1.9680287727022868e-08
8.785685471160809e-09
3.77292148950881e-09
1.5783870569974416e-09
6.648519232129253e-10
3.009661257444449e-10
1.585019912333258e-10
9.956101996238466e-11
7.051803645693798e-11
5.236774757559468e-11
3.9056341485616987e-11
2.879236773012669e-11
2.0933308803030624e-11
1.5050597485923882e-11
1.0738374943128606e-11
7.620833789156743e-12
5.38176327731657e-12
3.7759970629145374e-12
2.6240063132365e-12
1.7985639427363182e-12
1.210346732957432e-12
7.95929488735146e-13
5.091481635588791e-13
3.1549060862810013e-13
1.8869274279651008e-13
1.0871156671513016e-13
6.044403987015906e-14
3.279737066090709e-14
1.791066415910142e-14
1.045499796527537e-14
7.004684333035149e-15
5.494992367314174e-15
4.780176363978493e-15
4.295002403916228e-15
3.8119631794053495e-15
3.278981212497793e-15
2.719367313365737e-15
2.1762504090966854e-15
1.6862605214208028e-15
1.2706899525588111e-15
9.358058015798986e-16
6.769470876849928e-16
4.833158264445492e-16
3.419595837386497e-16
2.4044321028261734e-16
1.682600034480194e-16
1.1727837446761124e-16
8.157860541639632e-17
5.6994127328214e-17
4.059083938234191e-17
3.022929769925214e-17
2.4274620990078563e-17
2.1455577644452862e-17
2.0831907562762063e-17
2.1809940651999102e-17
2.415057137822071e-17
2.7935762006578557e-17
3.3490372564314915e-17
4.1282826911767074e-17
5.183942153765119e-17
6.569668273474547e-17
8.33862870711816e-17
1.0540944464556791e-16
1.3213188296664687e-16
1.6353944689402788e-16
1.98856792754304e-16
2.3615446730320123e-16
2.7224016492886134e-16
3.0331388229901933e-16
3.2701594775190777e-16
3.4657104479642413e-16
3.7773171609541705e-16
4.592317556443673e-16
6.67652175244896e-16
1.1382282300534708e-15
2.094390704490495e-15
3.8906814500941775e-15
7.075472713540451e-15
1.2480072829506975e-14
2.1336550123336733e-14
3.5414110937639696e-14
5.713907576963877e-14
8.962439447643308e-14
1.3648609501247068e-13
2.0128804978153145e-13
2.8649418331431213e-13
3.9206756135158626e-13
5.146786084148389e-13
6.506116632011514e-13
8.104352829970175e-13
1.0643857832596907e-12
1.6599305929921213e-12
3.2972114861449625e-12
7.730623948113125e-12
1.9010981784799625e-11
4.592757738670873e-11
1.0659517587176306e-10
2.366968702885529e-10
5.036532267241877e-10
1.029887956750216e-09
2.0292211564879553e-09
3.8608731495678865e-09
7.105014797425994e-09
1.2661526951928807e-08
2.1869091502380335e-08
3.6635278669012085e-08
5.9562335550104295e-08
9.405393932997055e-08
1.4440627840377796e-07
2.1593869271855375e-07
3.153235597628452e-07
4.514463783516924e-07
6.373619748826034e-07
8.941740206370674e-07
1.257864712026979e-06
1.7900952902972045e-06
2.5936022372512118e-06
3.831854956603234e-06
5.7510394855651485e-06
8.700307011136445e-06
1.314397363829588e-05
1.9657669831411554e-05
2.8900191854537995e-05
4.155482613318402e-05
5.823863170587911e-05
7.938528664664683e-05
0.00010511544553475186
0.0001351161359867443
0.00016855519345480865
0.00020405604681295424
0.0002397512936167361
0.0002734209501267779
0.0003027051807590052
0.00032536512776502316
0.00033955307286112835
0.0003440479255496001
0.00033841579317493264
0.0003230678275627769
0.0002992060813223163
0.00026866846557662235
0.00023370126233273326
0.00019669808302199822
0.0001599458483551018
0.0001254120296509481
9.459585104230457e-05
6.845304712834913e-05
4.739216188745904e-05
3.133184452161965e-05
1.980324097322823e-05
1.2078725042777127e-05
7.3073113072377155e-06
4.63816753473513e-06
3.317064425751715e-06
2.746416434952532e-06
2.5069675619826894e-06
2.3464951581512016e-06
2.14623239669573e-06
1.877734137532583e-06
1.5614926378261767e-06
1.2347739763648565e-06
9.315399391195531e-07
6.734752686559848e-07
4.6892895402788683e-07
3.1607214943206066e-07
2.0726784840585994e-07
1.3283647739771225e-07
8.351391896584283e-08
5.1639470910105364e-08
3.144520316326982e-08
1.885896660116972e-08
1.113021727396248e-08
6.455044168021373e-09
3.672957906963923e-09
2.047507516001612e-09
1.1170045087860798e-09
5.960001494353628e-10
3.110231347181228e-10
1.5883807627404545e-10
7.947915391589968e-11
3.903191596057489e-11
1.884871254728587e-11
8.965525324493785e-12
4.204549557799899e-12
1.9436102334268776e-12
8.841752097900831e-13
3.947320954623587e-13
1.7238496040145087e-13
7.345060069175041e-14
3.051705384608271e-14
1.2404366806425361e-14
4.978734002669196e-15
2.0059084998865166e-15
8.285074401539489e-16
3.571420288102239e-16
1.616857942681604e-16
7.613872355371899e-17
3.617457665568827e-17
1.647603947570283e-17
6.962226630844385e-18
3.007131351974877e-18
1.6223653275751406e-18
8.986469092948735e-19
3.160049757726227e-19
8.24690772987436e-20
4.620367646796504e-19
8.659355142341901e-19
1.5636276074047904e-18
3.5973139836548485e-18
8.39642344862713e-18
1.8477620891649035e-17
3.9963468322776246e-17
8.706546501792522e-17
1.9053600154764382e-16
4.166459565418472e-16
9.108955042831977e-16
1.9959099774542186e-15
4.3856829831617065e-15
9.642782755050754e-15
2.1117086014489236e-14
4.576837443337088e-14
9.744290842630106e-14
2.02155298601448e-13
4.052413760273002e-13
7.779916829024139e-13
1.4163719977228411e-12
2.416316082802987e-12
3.802371418162106e-12
5.392900700180974e-12
6.63871240251542e-12
6.633529902149643e-12
4.848854188228374e-12
3.7726591109135565e-12
1.5548702705563444e-11
7.582326671399109e-11
2.6914416818528514e-10
7.714871834555969e-10
1.9177369255807146e-09
4.307848029522139e-09
8.979760280174416e-09
1.7706173777948522e-08
3.352095627464146e-08
6.164827353807934e-08
1.110813257769538e-07
1.971107565564014e-07
3.4509321999879786e-07
5.956251307024818e-07
1.0109893915746247e-06
1.682228154518268e-06
2.735447705173719e-06
4.3350323721011934e-06
6.680494821844135e-06
9.993042142989421e-06
1.4488088818693476e-05
2.0331505910223598e-05
2.7580875366740882e-05
3.611849871847951e-05
4.558962916953246e-05
5.536548488090747e-05
6.455322646954887e-05
7.20712333045654e-05
7.679588772644957e-05
7.776660715117236e-05
7.441358002992538e-05
6.675505362203483e-05
5.5506137077678886e-05
4.205402860019209e-05
2.8284475540214884e-05
1.6283416712907592e-05
7.97379212096378e-06
4.768092953125868e-06
7.3150472977239694e-06
1.5394624657142315e-05
2.7977633353656864e-05
4.342692366730373e-05
5.978802233811491e-05
7.51044889763362e-05
8.769774389571332e-05
9.636793432517816e-05
0.000100494740960344
0.00010003857613477684
9.545924552791948e-05
8.757912397457787e-05
7.74213293120409e-05
6.605134324328695e-05
5.4444500686332085e-05
4.339337302783284e-05
3.345998559779694e-05
2.4969637146533275e-05
1.80371154431326e-05
1.2613043347117875e-05
8.537952924316666e-06
5.593845627818203e-06
3.546447713939395e-06
2.1750549146298853e-06
1.2899525356102534e-06
7.39449221708655e-07
4.0950694284131494e-07
2.189925999398766e-07
1.1305187560067195e-07
5.6345649463940933e-08
2.7143574415844398e-08
1.2679665554359498e-08
5.786431919928026e-09
2.618622730676257e-09
1.2063537267797819e-09
5.869916753315305e-10
3.12341505897516e-10
1.8371045807003748e-10
1.170739878121147e-10
7.82212626635573e-11
5.336519349807927e-11
3.665486466791466e-11
2.5231760879485347e-11
1.7414840310394746e-11
1.2076083548308435e-11
8.423177854468332e-12
5.904286350628336e-12
4.145791089240204e-12
2.9018047156153588e-12
2.01318740391208e-12
1.3766174525807805e-12
9.231676260572932e-13
6.046736880823411e-13
3.857392904742068e-13
2.393725404664645e-13
1.4469836925977045e-13
8.570215055384466e-14
5.0399241844827774e-14
3.014028653560736e-14
1.895396476375162e-14
1.2924056884252913e-14
9.629689502618434e-15
7.675885696841872e-15
6.326919348642299e-15
5.239629140797438e-15
4.283135265148197e-15
3.4263755986766344e-15
2.6744516394074396e-15
2.0371999331901287e-15
1.5170836330761684e-15
1.1072991136069855e-15
7.942731325675024e-16
5.612304467902417e-16
3.9123174591858167e-16
2.691396524849217e-16
1.8253614545373133e-16
1.218542797099251e-16
8.003668893169606e-17
5.19900339987114e-17
3.402800301026838e-17
2.341663942259114e-17
1.80677352011685e-17
1.6373574568570004e-17
1.7141972487404596e-17
1.957629081729692e-17
2.3251002881158715e-17
2.805541791718348e-17
3.41075206746047e-17
4.166452919358392e-17
5.106545479585897e-17
6.27277334985996e-17
7.71878325247658e-17
9.513740222607184e-17
1.173822976918804e-16
1.4466371963474556e-16
1.7734468324273525e-16
2.1508202818856206e-16
2.567541897644103e-16
3.010571672053482e-16
3.4826504645764573e-16
4.0364090586446486e-16
4.828916294216112e-16
6.19982063076968e-16
8.77754053897499e-16
1.3623929805039422e-15
2.244059717252416e-15
3.787907882925252e-15
6.401599881905513e-15
1.0705720870573446e-14
1.7629272128420385e-14
2.8519447708923193e-14
4.5228101890953316e-14
7.009264823903813e-14
1.056678213945475e-13
1.5400262997581723e-13
2.1524456693522164e-13
2.8551921993684543e-13
3.5467375613058387e-13
4.062284928887496e-13
4.260711963067902e-13
4.35634110474166e-13
5.843020666641497e-13
1.3730183551329942e-12
4.15039265231185e-12
1.2145603189828026e-11
3.2509797315359195e-11
8.016907893779966e-11
1.847904801492022e-10
4.02859539469373e-10
8.377575035433405e-10
1.6717193721566582e-09
3.2144305994372866e-09
5.973396772301186e-09
1.0750597211346882e-08
1.8767913717578674e-08
3.1820626155887544e-08
5.245560009510362e-08
8.41730643420817e-08
1.31666335840912e-07
2.0115487546797864e-07
3.0094731397907125e-07
4.4250407542625717e-07
6.424523449301148e-07
9.262110711359222e-07
1.334042044734549e-06
1.93034063098053e-06
2.8166684720936497e-06
4.148267331700347e-06
6.152506927085156e-06
9.145993387232572e-06
1.3545206168587639e-05
1.986408525052791e-05
2.8691660385211213e-05
4.064427218991504e-05
5.629055645238175e-05
7.605296767612057e-05
0.00010009632860819743
0.00012822021126728504
0.0001597760835473173
0.00019363049156698915
0.00022819120335038976
0.00026150440085261073
0.0002914190125296637
0.00031580138146096036
0.000332772360122986
0.0003409321582431232
0.0003395376541545475
0.00032860300807286444
0.00030890640508914703
0.00028190130797466675
0.00024954646605789173
0.0002140817288632201
0.0001777838953749833
0.00014273737216655266
0.0001106489977584828
8.272693898694479e-05
5.963240886613018e-05
4.1502073147634566e-05
2.8029703061960526e-05
1.858866368854621e-05
1.2372787982108682e-05
8.53263841880937e-06
6.28741877830011e-06
4.999494136649465e-06
4.207258559314509e-06
3.6208300257187554e-06
3.0915320322952224e-06
2.5688748458253127e-06
2.057608860091457e-06
1.5834811614766349e-06
1.1713672038385972e-06
8.351695180211514e-07
5.762935669965305e-07
3.867860217379686e-07
2.5385903748834845e-07
1.637768939965938e-07
1.0430461977308316e-07
6.575695162690784e-08
4.1073879495533384e-08
2.5399170011998238e-08
1.551664591995133e-08
9.339605924048016e-09
5.523761861501813e-09
3.2027382969451603e-09
1.8174963723462736e-09
1.0085374930455497e-09
5.471257154714223e-10
2.9030143683329177e-10
1.5079980395088132e-10
7.679355433387378e-11
3.839391377839561e-11
1.8870530007885808e-11
9.125455019231151e-12
4.3424149075769715e-12
2.032098171541662e-12
9.340962944684287e-13
4.2126282138781104e-13
1.8630304324322585e-13
8.089127076040738e-14
3.4615244044350624e-14
1.4705418287603505e-14
6.2674436985169494e-15
2.711163165829752e-15
1.2008443355525829e-15
5.455534608353137e-16
2.5219483848434915e-16
1.1652706579096453e-16
5.268173868078462e-17
2.3155836850043967e-17
1.0118841373871459e-17
4.363396852762743e-18
1.5420546828093325e-18
2.4816089530168403e-19
7.075570296193218e-19
5.491971971189994e-19
3.016624935653303e-19
3.3952161915727777e-19
1.2527771248627906e-18
3.245356813358317e-18
6.945879294172606e-18
1.5160713833182394e-17
3.4814629261351747e-17
8.048720184003267e-17
1.8393728736461984e-16
4.1736302761184346e-16
9.455487163553395e-16
2.1402359486934414e-15
4.827294005461995e-15
1.0803670920042839e-14
2.3865185013246246e-14
5.171558934891021e-14
1.0919906575581152e-13
2.2307021407326034e-13
4.3748844424518604e-13
8.168805862756873e-13
1.438390699130552e-12
2.361653323629273e-12
3.567115562635552e-12
4.8861670415707835e-12
6.046061268970559e-12
7.175816094399412e-12
1.0516686905439181e-11
2.4650617992707926e-11
7.319782007266581e-11
2.1045935748442881e-10
5.468709775960725e-10
1.2880853836684767e-09
2.7952246115264475e-09
5.684687423970025e-09
1.1009992900176181e-08
2.0611361099801946e-08
3.778279837881271e-08
6.848415602381747e-08
1.2339679949657242e-07
2.2115123048796e-07
3.929943255285185e-07
6.88953161053028e-07
1.1851288453683107e-06
1.9910687957941305e-06
3.2552211683747802e-06
5.165381465294009e-06
7.940088716333518e-06
1.1806629941134412e-05
1.69623575390676e-05
2.3519084857458408e-05
3.1435676887355614e-05
4.045101024029787e-05
5.003644039535477e-05
5.9390846623028084e-05
6.749890924124238e-05
7.32622556275435e-05
7.569397124205939e-05
7.41439736095456e-05
6.850345935018786e-05
5.932955438968231e-05
4.7842209460547005e-05
3.577404355048458e-05
2.5092844908416265e-05
1.7653322200004092e-05
1.485666186305093e-05
1.739567316454e-05
2.5140235675261438e-05
3.718076032491142e-05
5.200895252157512e-05
6.778682044042242e-05
8.264297730325511e-05
9.493976585723597e-05
0.00010347058494434175
0.00010756717224606535
0.00010711566707073073
0.00010249471126863404
9.445772198408604e-05
8.398528432941966e-05
7.213327218007506e-05
5.9898637601728205e-05
4.8118607823205744e-05
3.74113054740967e-05
2.8157887935033963e-05
2.0519616868351347e-05
1.4478962589555949e-05
9.892424793531738e-06
6.543962453521803e-06
4.1909306067357525e-06
2.5981272238174058e-06
1.5589717416624135e-06
9.053274720822489e-07
5.088209272223094e-07
2.7682479661895577e-07
1.4587564939943392e-07
7.455288103180505e-08
3.7047825138292756e-08
1.7985314299410327e-08
8.598936294294258e-09
4.101465665280753e-09
1.987515426172617e-09
9.994440420703233e-10
5.307426132450553e-10
2.994080432097718e-10
1.7806518598736165e-10
1.0997971086989493e-10
6.956464859105796e-11
4.4689576494456915e-11
2.9094178670833064e-11
1.923018629155245e-11
1.2942367079633014e-11
8.880575280224926e-12
6.1993158669624665e-12
4.378405774673141e-12
3.1047897409481036e-12
2.1927315084003977e-12
1.5312850254804786e-12
1.051494455964695e-12
7.072737699174151e-13
4.651346522446549e-13
2.991565079674644e-13
1.8873411234211823e-13
1.1758280164283935e-13
7.317667369089561e-14
4.625098031042884e-14
3.0260485188042575e-14
2.0808100650742395e-14
1.5095963775133957e-14
1.1445757166999484e-14
8.91410401494127e-15
7.007650319838443e-15
5.487507274011717e-15
4.245190003254158e-15
3.230576973693656e-15
2.4144878035204814e-15
1.7722243192171578e-15
1.2784315254179443e-15
9.071218789571416e-16
6.333547987707965e-16
4.3486169991228584e-16
2.929960727173253e-16
1.9296034020520387e-16
1.2349978976045953e-16
7.630482348347167e-17
4.532661639473945e-17
2.6147152464575525e-17
1.5480923457773104e-17
1.0832466897742482e-17
1.02939068786126e-17
1.244105586027988e-17
1.6277234121070224e-17
2.1181391023773112e-17
2.683826672871159e-17
3.3155288303167376e-17
4.0192472201923556e-17
4.813729043641924e-17
5.734111153159484e-17
6.840120864640044e-17
8.223577209660655e-17
1.0007882461493061e-16
1.2333763053730079e-16
1.5331915596384154e-16
1.909400826685019e-16
2.366616055523427e-16
2.909924757610705e-16
3.559335611108411e-16
4.3766678310901877e-16
5.506452498264166e-16
7.231261247235645e-16
1.0043004701256276e-15
1.4737681684695255e-15
2.255385428617528e-15
3.5394362741662455e-15
5.619066216857878e-15
8.947476340254716e-15
1.421875509806888e-14
2.2463237644242583e-14
3.512266506670469e-14
5.4026308148849237e-14
8.112593960238423e-14
1.1777702666870577e-13
1.6331838388225668e-13
2.1281359554675568e-13
2.543295321264063e-13
2.675853656388466e-13
2.2931439063425057e-13
1.383724685065134e-13
8.942183167426791e-14
4.547850421740486e-13
2.2912320026383185e-12
8.190030415207492e-12
2.3961130521604905e-11
6.182206749078644e-11
1.4619307234601777e-10
3.2382616765258e-10
6.808448224796607e-10
1.370323014675895e-09
2.6551855898237988e-09
4.9722506888556805e-09
9.02385380324251e-09
1.590343617115408e-08
2.7260895735660755e-08
4.5513576633257624e-08
7.411264110121987e-08
1.1788819320968257e-07
1.835290184319541e-07
2.803151456813888e-07
4.213224490392543e-07
6.254572759675998e-07
9.2083437711423e-07
1.3501308851244424e-06
1.9785442006808205e-06
2.904736149503031e-06
4.274545181712789e-06
6.296232090579434e-06
9.254651619024408e-06
1.3520246839396228e-05
1.9547568584399443e-05
2.7857679529085217e-05
3.899984407913736e-05
5.3490638137890374e-05
7.173291919271517e-05
9.392232979942514e-05
0.00011995405471233209
0.00014934608578308242
0.00018119609211531264
0.00021418647699052257
0.00024664638469174574
0.0002766710892629677
0.00030228969749132524
0.00032166305813739944
0.00033328683304591396
0.0003361712817373052
0.00032997042651364825
0.0003150391977557793
0.0002924072926295142
0.0002636712158367655
0.00023081895237892254
0.00019601237605760242
0.00016135872081739477
0.00012870315752501563
9.946986388275611e-05
7.457009656879785e-05
5.438440727508598e-05
3.8814222769132105e-05
2.7387440201962132e-05
1.9395215799281327e-05
1.4034116402618211e-05
1.0529891674243238e-05
8.225830890484235e-06
6.628291538301024e-06
5.411975929071834e-06
4.395285898315194e-06
3.499855611084162e-06
2.7078224696104535e-06
2.026611755141131e-06
1.4658542608179921e-06
1.0263897328386279e-06
6.983292602534638e-07
4.641458748241361e-07
3.0328973984085884e-07
1.961066159185248e-07
1.26162656228158e-07
8.102018404846279e-08
5.195914007888367e-08
3.320177104906479e-08
2.105472814414063e-08
1.3189344598231247e-08
8.127010745540568e-09
4.909234063023626e-09
2.9005893011081337e-09
1.6742358333015353e-09
9.437614703772601e-10
5.197447787679565e-10
2.798947884420286e-10
1.4757501674692123e-10
7.628375951152596e-11
3.870780791335818e-11
1.9298948095682473e-11
9.459818174735305e-12
4.559529288535249e-12
2.160846599072689e-12
1.0069974610589195e-12
4.617780429184393e-13
2.0875861867615903e-13
9.336451363124673e-14
4.1528913401741616e-14
1.8493676881284025e-14
8.298961037729233e-15
3.76872600165919e-15
1.731736470809845e-15
8.006768355383903e-16
3.6872175986094515e-16
1.672711347047391e-16
7.423782990734521e-17
3.203457416442546e-17
1.3058834710390314e-17
4.689282187022797e-18
1.4905915570672241e-18
2.7953522479961022e-18
1.102339626337644e-18
1.791598493745944e-19
8.757413039161317e-20
7.012573648209402e-19
1.4332393891900321e-18
2.3600726260922137e-18
5.1891043134794986e-18
1.3367600244259166e-17
3.3106501376896496e-17
7.839848881186055e-17
1.834878196838317e-16
4.297406730885958e-16
1.0049170588487205e-15
2.3351392070766358e-15
5.369448178849791e-15
1.21637397226435e-14
2.701036980182497e-14
5.846605926866478e-14
1.2263819375891268e-13
2.477522006623666e-13
4.78954558582353e-13
8.802687991765077e-13
1.5285809387574834e-12
2.497153323133412e-12
3.846029357055069e-12
5.698572733597239e-12
8.623056361554485e-12
1.4786048727503738e-11
3.0686780809151496e-11
7.261537511016045e-11
1.7611909253376143e-10
4.106274677308866e-10
9.004684362654952e-10
1.8555928838054562e-09
3.6231591000526673e-09
6.790335010536019e-09
1.2405267798882982e-08
2.2440475363756245e-08
4.069762136483448e-08
7.443123383296442e-08
1.3702535830428812e-07
2.5205127950378276e-07
4.589106850981297e-07
8.199563511274949e-07
1.4284059316538632e-06
2.4154753213171932e-06
3.9540001311895265e-06
6.254613993094485e-06
9.549799091852404e-06
1.4061560594822714e-05
1.995092405938862e-05
2.7252424897792317e-05
3.580391877435343e-05
4.5189757180009126e-05
5.472067236603849e-05
6.34729947434808e-05
7.040032714584007e-05
7.451244536645259e-05
7.509285706691643e-05
7.190567723932085e-05
6.53331680794603e-05
5.639391813350788e-05
4.6618642898841625e-05
3.779895994059929e-05
3.166170339270118e-05
2.9544218112921682e-05
3.21463675270734e-05
3.941294695437281e-05
5.0564268622933975e-05
6.425560589076394e-05
7.881947289845002e-05
9.253438577886929e-05
0.0001038690630903696
0.00011166635396581609
0.00011524950677896263
0.00011444935863790814
0.00010956230026336043
0.00010125562188339992
9.044028003265777e-05
7.813217929980568e-05
6.532194183940283e-05
5.286967073082229e-05
4.1435522384755514e-05
3.144981661109629e-05
2.3119366179780322e-05
1.646123760870452e-05
1.1352317789163185e-05
7.583086775566284e-06
4.906311230178367e-06
3.074914837513182e-06
1.8669283832945324e-06
1.0983306015967824e-06
6.263580200673638e-07
3.464973663926814e-07
1.8615703289611443e-07
9.732168235068366e-08
4.9665181287428266e-08
2.486106617621747e-08
1.229530470697749e-08
6.067561531645758e-09
3.0244169243668222e-09
1.5420353016978266e-09
8.120532096312208e-10
4.433121775151319e-10
2.5016257651791885e-10
1.4495548234212353e-10
8.571428201519923e-11
5.1595170702009385e-11
3.169377119324346e-11
1.9992504367631035e-11
1.3039046961914327e-11
8.820113797981934e-12
6.1673872279571574e-12
4.416365310444573e-12
3.1991932998726757e-12
2.316845330793647e-12
1.661725321683747e-12
1.1728673656770195e-12
8.11715361492572e-13
5.502188288170594e-13
3.657321261823308e-13
2.392540389028927e-13
1.5501255818452266e-13
1.0038106042444086e-13
6.571118716918507e-14
4.3990577376951075e-14
3.0375532759963115e-14
2.1685814566413903e-14
1.5935247914347644e-14
1.1941637561939652e-14
9.030765913997166e-15
6.829161031218872e-15
5.129750704338847e-15
3.81138302078753e-15
2.7946591014773622e-15
2.0201250783956956e-15
1.4389153741154871e-15
1.0094935987237878e-15
6.968341727006297e-16
4.722085826484369e-16
3.128366158821188e-16
2.012388026708256e-16
1.243720114622364e-16
7.269380564112195e-17
3.928219917115991e-17
1.9092576148381238e-17
8.388690066565263e-18
4.348046167092437e-18
4.814916675151228e-18
8.157547323657965e-18
1.3181635968747046e-17
1.9061003464458927e-17
2.5266220508742852e-17
3.1495892491167125e-17
3.7633332622767395e-17
4.3754192199025645e-17
5.01942590737984e-17
5.765558146845066e-17
6.729659003595897e-17
8.073658458882295e-17
9.992415085797126e-17
1.2688066627534182e-16
1.634254591531482e-16
2.1109072535337358e-16
2.715002056092266e-16
3.474746322240013e-16
4.450219439281863e-16
5.762062121289268e-16
7.627760324576141e-16
1.0405591516007992e-15
1.4652281114075449e-15
2.121297465709841e-15
3.138097977350011e-15
4.71849088308771e-15
7.186946074822346e-15
1.1060890184882525e-14
1.7139177514602083e-14
2.6579291382967758e-14
4.089573345060894e-14
6.175477836238918e-14
9.03751566700692e-14
1.2630691138235904e-13
1.6544702733867258e-13
1.9757687952251477e-13
2.0492786141718508e-13
1.6620270774840795e-13
7.682154361305447e-14
9.059509259381615e-15
2.60681931698636e-13
1.6868635916364118e-12
6.392359648760287e-12
1.910159255826956e-11
4.9755852963195324e-11
1.182520338396118e-10
2.6278688524491697e-10
5.540540499732146e-10
1.1185880897993462e-09
2.175844782317792e-09
4.0950650952953736e-09
7.479442228891962e-09
1.3286468374314136e-08
2.2994705172267397e-08
3.882941890420678e-08
6.406470508726295e-08
1.034320642965059e-07
1.636913278909402e-07
2.544672242854219e-07
3.895300739270823e-07
5.88801327936975e-07
8.814779813801969e-07
1.3107548307271535e-06
1.940612825400965e-06
2.8649462838040216e-06
4.218832717746812e-06
6.190957921069217e-06
9.035138494486228e-06
1.3077711955022911e-05
1.871661498612404e-05
2.640766624292421e-05
3.6634319724158934e-05
4.98591923381396e-05
6.645890444180963e-05
8.664771849799392e-05
0.00011039930044119521
0.00013737871368523007
0.00016689768757704012
0.00019790486788046137
0.00022901922836250201
0.0002586095799696218
0.00028491686112808943
0.0003062093877639562
0.0003209552448052847
0.000327991332688141
0.0003266661770861945
0.00031693441576294317
0.00029938554400772764
0.0002751979699067799
0.0002460206477412352
0.00021379652818026603
0.00018055230048394472
0.00014818510087731071
0.0001182775392493405
9.196726478334722e-05
6.988729877705636e-05
5.218047478761849e-05
3.857814134860791e-05
2.8522542747215134e-05
2.1306299859843264e-05
1.620241893914041e-05
1.2564018056841455e-05
9.882688556189787e-06
7.805253350700373e-06
6.117657558062355e-06
4.7097041260551545e-06
3.534713088049475e-06
2.574856711253232e-06
1.8177873067979674e-06
1.2452289018308282e-06
8.308383992002533e-07
5.433150588869579e-07
3.510955016190559e-07
2.2624075942055445e-07
1.4652951932556741e-07
9.581734076903586e-08
6.324196251310859e-08
4.193547795226589e-08
2.7736742280865543e-08
1.8161936477112202e-08
1.1698799695378922e-08
7.379068686839953e-09
4.544796972240419e-09
2.72951800963327e-09
1.5980905164876576e-09
9.126126242985741e-10
5.088531637721601e-10
2.7739638721453307e-10
1.4806118319144164e-10
7.748576421083581e-11
3.9808545417641206e-11
2.0097242333100913e-11
9.978020198669543e-12
4.875368690273033e-12
2.346369449403631e-12
1.1137078215991948e-12
5.224059352736646e-13
2.428734471248458e-13
1.1233893377443746e-13
5.191262703257933e-14
2.4054760565344596e-14
1.1198909208280445e-14
5.234509419858076e-15
2.446957294125257e-15
1.1367754063173215e-15
5.210373249085145e-16
2.3394649557228745e-16
1.0198292081269826e-16
4.25526273110476e-17
1.6846623309087712e-17
6.600779094735665e-18
1.0333431853168447e-17
3.968107436276257e-18
1.3837874967395528e-18
8.470277892728428e-19
9.73214136681352e-19
7.52370723970172e-19
4.694444204161841e-19
1.5116607499890504e-18
5.306769270579277e-18
1.368462272975726e-17
3.225901487368393e-17
7.712394544003063e-17
1.8757696224046818e-16
4.55430159901466e-16
1.0946309998343244e-15
2.5972969376873454e-15
6.0647895994612575e-15
1.3877637692752362e-14
3.097627998942435e-14
6.71320419516764e-14
1.405979453362661e-13
2.832749170512552e-13
5.469106443036488e-13
1.0094185175196703e-12
1.7828725352276332e-12
3.037659039315604e-12
5.095944691729638e-12
8.734210285470746e-12
1.598577003281358e-11
3.193038526142257e-11
6.810331945129074e-11
1.480769524876656e-10
3.15350695636899e-10
6.432611425827793e-10
1.247605333506445e-09
2.308170045475881e-09
4.120263759327646e-09
7.227239966614859e-09
1.2733825789992447e-08
2.296715548491081e-08
4.2729858037818844e-08
8.146030111457772e-08
1.5665035234185188e-07
2.988251215557586e-07
5.58192873775696e-07
1.0126339229928243e-06
1.7759219479469986e-06
3.0039308723208734e-06
4.895216569407644e-06
7.681200975979199e-06
1.1600979599836201e-05
1.6857468147101357e-05
2.3555957028166944e-05
3.163313209919415e-05
4.079287176014747e-05
5.0471739575011576e-05
5.9858223389379716e-05
6.798215538927408e-05
7.387365582079562e-05
7.676772261461947e-05
7.630862605954499e-05
7.269677748219982e-05
6.67268751869266e-05
5.9691077324734284e-05
5.315817700052918e-05
4.867678701705436e-05
4.7473902630101994e-05
5.022128629687902e-05
5.692099914863074e-05
6.692668036894329e-05
7.908181693476189e-05
9.193177934070753e-05
0.00010395838549563281
0.00011379262167268468
0.0001203764417322485
0.0001230609083243127
0.00012164040274304461
0.00011632997364220494
0.00010769661536682415
9.655755831297332e-05
8.386070076939633e-05
7.056377640061662e-05
5.752852482256232e-05
4.54430629699182e-05
3.4779966823892864e-05
2.5790550075184105e-05
1.8529336343398755e-05
1.2898400570001852e-05
8.6998962735865e-06
5.686477059244232e-06
3.6025081511934554e-06
2.2127236677893475e-06
1.3182736757225668e-06
7.623157112789115e-07
4.2830687896019804e-07
2.3416257434409154e-07
1.2484610564133856e-07
6.511713180211328e-08
3.33720790788602e-08
1.6903296236677954e-08
8.523060239674213e-09
4.31267323239264e-09
2.206629401454955e-09
1.147986933448944e-09
6.085342626875937e-10
3.282629354026325e-10
1.796623025910653e-10
9.958039296760493e-11
5.601615086008944e-11
3.2246064540841375e-11
1.926597399976357e-11
1.213166679665064e-11
8.117930675252694e-12
5.742744397995219e-12
4.223414625856168e-12
3.1635190935374856e-12
2.3715704858952713e-12
1.7581134554096066e-12
1.2800011038339034e-12
9.124644249469157e-13
6.367627788233455e-13
4.3587681972010675e-13
2.9381721166005404e-13
1.9615466793829037e-13
1.3063924490821238e-13
8.750114603448438e-14
5.939240601673007e-14
4.107654893954816e-14
2.90007897050705e-14
2.0858361770405328e-14
1.520626783932365e-14
1.1165972573375484e-14