# vtk DataFile Version 4.1 
COMMENT
ASCII
DATASET STRUCTURED_POINTS 
DIMENSIONS 300 300 1 
ORIGIN 0 0 0
SPACING 0.020943951023931952 0.020943951023931952 0 
POINT_DATA 90000
SCALARS U double 1
LOOKUP_TABLE default
1.5202604037453294e-21
5.292636408589733e-22
1.8216717388651425e-22
6.200299937369048e-23
2.0873581583448514e-23
6.952042630023345e-24
2.291031022683833e-24
7.471187215099457e-25
2.4108306865929035e-25
7.695849319295676e-26
2.429206528767655e-26
7.578454111846716e-27
2.3369242503685392e-27
7.134390774320441e-28
2.163847313175678e-28
6.555778832394342e-29
2.0140662571893855e-29
6.496144129561262e-30
2.1826819627518316e-30
6.209040116672365e-31
8.980046303910134e-32
4.4196227208057333e-32
1.2643955262844938e-31
2.1669122978818723e-31
5.327104327706274e-31
1.4870232073203472e-30
3.5772202422098666e-30
7.733651149511663e-30
1.6573657510127966e-29
3.708645531790204e-29
8.540282130657312e-29
1.9531678585518821e-28
4.361098427281683e-28
9.540607510243517e-28
2.0670534808807996e-27
4.46531658192106e-27
9.613361844206217e-27
2.0536280495715475e-26
4.3365618815289317e-26
9.041675651384938e-26
1.8633148280164096e-25
3.802040677484001e-25
7.690645272987609e-25
1.5424501549970858e-24
3.0656045801151655e-24
6.03287075757192e-24
1.1747767507451526e-23
2.2629592978721147e-23
4.312001311783691e-23
8.128549305482357e-23
1.5161191443496656e-22
2.798129343382679e-22
5.1099737441042e-22
9.233780718448477e-22
1.651030971073684e-21
2.9212948266895844e-21
5.1156400171019645e-21
8.867835007014634e-21
1.522091098460202e-20
2.5876120538533315e-20
4.358476610513713e-20
7.276018785975237e-20
1.2042602252679157e-19
1.9767265952887392e-19
3.2187177865091257e-19
5.200037003035906e-19
8.335863868933904e-19
1.3258548976428952e-18
2.0920115852036633e-18
3.2735181810055853e-18
5.077473312305623e-18
7.802022455601513e-18
1.1868356174558513e-17
1.7859012723791147e-17
2.6560753037655904e-17
3.900809857648231e-17
5.652070132390859e-17
8.072423214569466e-17
1.1354090043961535e-16
1.571328867823941e-16
2.1378107897954698e-16
2.8568400501979854e-16
3.7466920077424595e-16
4.818224427764852e-16
6.0705932277575705e-16
7.486869648609496e-16
9.030277129206905e-16
1.0641957515084685e-15
1.2241248530006409e-15
1.3729336873116263e-15
1.4996792785254895e-15
1.5934884929671923e-15
1.644977588901709e-15
1.6477839382541147e-15
1.5999615091761022e-15
1.5049549427331421e-15
1.3718856472557147e-15
1.2149673062846742e-15
1.0520122294275521e-15
9.021708773883684e-16
7.832262511037335e-16
7.088972787545421e-16
6.866508167694835e-16
7.164585049764878e-16
7.907677056580199e-16
8.957188756537062e-16
1.0133897442135234e-15
1.1246406574069743e-15
1.2120253605706795e-15
1.2622418553295384e-15
1.2677214037479369e-15
1.2271542990479301e-15
1.1449758270654766e-15
1.0300309305693187e-15
8.937609256239752e-16
7.48292115195396e-16
6.047601072204206e-16
4.720993983627721e-16
3.5639871182825473e-16
2.608010590403497e-16
1.858372232937457e-16
1.3003362265803041e-16
9.062949167661948e-17
6.426438306590834e-17
4.754121774999755e-17
3.741865881976329e-17
3.142875260281918e-17
2.774543494985484e-17
2.514499910895072e-17
2.2902723128410507e-17
2.066421858032798e-17
1.8319820124756278e-17
1.589905333456954e-17
1.3492354717589811e-17
1.1200024161697163e-17
9.104112703866435e-18
7.25717316223992e-18
5.681803080191163e-18
4.3759288731622494e-18
3.3201904934254116e-18
2.4851621876822133e-18
1.8372591151404173e-18
1.3429572370834683e-18
9.714179297719086e-19
6.958293184046722e-19
4.938344112452506e-19
3.473826539663782e-19
2.4226867415508257e-19
1.675425651580936e-19
1.1490716681209018e-19
7.816571051459157e-20
5.274784794342618e-20
3.532046182668418e-20
2.347795164892081e-20
1.5501438530135636e-20
1.0174888785366387e-20
6.646709020350884e-21
4.326806238068803e-21
2.8108128864392826e-21
1.8248331252110745e-21
1.185529488347222e-21
7.715865853003504e-22
5.035570229981371e-22
3.298383393879415e-22
2.170878209799069e-22
1.4379943043786102e-22
9.608476363936011e-23
6.494884401748822e-23
4.455026327078664e-23
3.1092482645062374e-23
2.2112840260017338e-23
1.6021391990077522e-23
1.1798518443114472e-23
8.795400459508385e-24
6.6022941454395285e-24
4.961885249038987e-24
3.7126580551323974e-24
2.7522015809169284e-24
2.013687516753489e-24
1.4509538561658896e-24
1.029146586768981e-24
7.190742613390051e-25
4.945404886589219e-25
3.32795109013222e-25
2.1814259354660073e-25
1.4667464193181774e-25
1.2657075892653026e-25
1.6851406925408694e-25
2.7663728535062134e-25
5.02969380299017e-25
1.2632744937969853e-24
4.4923558194376666e-24
1.7473803470704815e-23
6.552957177886626e-23
2.3435479625641617e-22
8.097086012934835e-22
2.7278614279174862e-21
8.990479273893638e-21
2.8996060182624116e-20
9.147547101825663e-20
2.8219180020896824e-19
8.511584781189177e-19
2.5101314573848336e-18
7.237739525939194e-18
2.0404458622757972e-17
5.624090473248593e-17
1.5155503468245923e-16
3.9926630711772496e-16
1.028278065660223e-15
2.588770075896796e-15
6.370722788440271e-15
1.532397810867465e-14
3.602593024514891e-14
8.27734642881361e-14
1.858527057584987e-13
4.0777101416138884e-13
8.741778515001678e-13
1.8309817326744684e-12
3.74655731721782e-12
7.48871017191904e-12
1.4620724384821405e-11
2.7879045108104424e-11
5.19150201421799e-11
9.440010675606355e-11
1.6759991998556229e-10
2.905052617312307e-10
4.915522650830235e-10
8.118528080068547e-10
1.308678910592768e-09
2.0587021587091553e-09
3.1602045854227815e-09
4.733204076277218e-09
6.9162602687958885e-09
9.858754130299739e-09
1.370777397797397e-08
1.8589464135404656e-08
2.4585791226999105e-08
3.1709032148308355e-08
3.987763278602017e-08
4.8898072183351043e-08
5.8457611179824875e-08
6.813201089683991e-08
7.74103833087861e-08
8.573648416571595e-08
9.25624829572771e-08
9.740826980725516e-08
9.991745374271268e-08
9.990096342328177e-08
9.736080116002693e-08
9.24897720952318e-08
8.564722593323027e-08
7.731506107017596e-08
6.804150135432283e-08
5.83817742659291e-08
4.8844543311348475e-08
3.985100196237277e-08
3.171052359586466e-08
2.461346170636884e-08
1.863884035640103e-08
1.3772773514521841e-08
9.932697959668791e-09
6.992794214163191e-09
4.806993580120106e-09
3.2273353739847354e-09
2.116788444178454e-09
1.3567342769389823e-09
8.500079382718138e-10
5.207077467116917e-10
3.1199284106638595e-10
1.8290074758249576e-10
1.0494235863753854e-10
5.895189998759164e-11
3.243440750520635e-11
1.7483431648509656e-11
9.236610966125465e-12
4.784289718621285e-12
2.4304974604572572e-12
1.2114342715498497e-12
5.926323477046786e-13
2.84645893915503e-13
1.3427989700674336e-13
6.223790465293355e-14
2.8352212386724493e-14
1.2698595922325724e-14
5.593818831600843e-15
2.4243233173420528e-15
1.03406025786193e-15
4.342263218284967e-16
1.7957309326607267e-16
7.315751344457938e-17
2.937005103631698e-17
1.1622827594241888e-17
4.535352386836274e-18
1.7455435769949155e-18
6.628211577881889e-19
2.483881099503249e-19
9.18869436323611e-20
3.3564645475714274e-20
1.2109580387371033e-20
4.3162368080294925e-21
2.387122458702403e-21
8.444210496477422e-22
2.952450185371132e-22
1.0205608404206431e-22
3.488317733822943e-23
1.1792140382351967e-23
3.9430441878142686e-24
1.3042824059325072e-24
4.267949102526124e-25
1.3814964684087037e-25
4.423173787913913e-26
1.4009347763433572e-26
4.3921148624113684e-27
1.3651550731082826e-27
4.218565607059483e-28
1.301933393240246e-28
4.0397616200490806e-29
1.2634420370927503e-29
3.8825514640129055e-30
1.099022349538583e-30
2.9530485615792687e-31
1.1195807132585928e-31
4.95234919335351e-32
1.3431439673732026e-32
7.537426416013066e-32
2.939476296855789e-31
6.679419866236416e-31
1.2508080822371578e-30
2.4794172757102037e-30
5.787792736735483e-30
1.4464904770181492e-29
3.487461051820551e-29
7.93170317254937e-29
1.7432779963542535e-28
3.8172258589845053e-28
8.441110232103141e-28
1.8743607123789782e-27
4.127938923055169e-27
8.945867847061948e-27
1.9063702793597075e-26
4.0092929314106303e-26
8.356496408455754e-26
1.7301099180205253e-25
3.5578807204956773e-25
7.2566565062336705e-25
1.4655219506495178e-24
2.927556241291568e-24
5.782995109642559e-24
1.129886482606287e-23
2.184332182008536e-23
4.1795344646444217e-23
7.915941168250688e-23
1.4839433228634154e-22
2.7531121701438345e-22
5.054629306639915e-22
9.183667086931162e-22
1.6513735168608183e-21
2.939330058092136e-21
5.1798423873725534e-21
9.039653576408977e-21
1.562644019750475e-20
2.676371680129856e-20
4.542658633160911e-20
7.64254983893245e-20
1.2746726599361268e-19
2.1078087991311283e-19
3.455731044590657e-19
5.61676224477323e-19
9.048635933280418e-19
1.4444250037064001e-18
2.2836867134229977e-18
3.5741840964864154e-18
5.5340782385997904e-18
8.471056471646952e-18
1.2809258165881208e-17
1.911860997901291e-17
2.814326564386945e-17
4.082364224300605e-17
5.830400514763261e-17
8.191508292933234e-17
1.1311947127625797e-16
1.5340755488859944e-16
2.0413444227191787e-16
2.6629500724971704e-16
3.402451778146257e-16
4.2539285524368246e-16
5.198997242772867e-16
6.204525789248972e-16
7.221749642358767e-16
8.187513152534211e-16
9.028210290260328e-16
9.666657233025007e-16
1.0031599833715794e-15
1.0068904093957483e-15
9.752820223821144e-16
9.095220409190068e-16
8.150569064788153e-16
7.014734129854718e-16
5.816633223281828e-16
4.703032389555258e-16
3.818331072812436e-16
3.282518326771846e-16
3.171292713013711e-16
3.502312900845901e-16
4.2305928200482703e-16
5.254328494159473e-16
6.430325964090656e-16
7.596204726533575e-16
8.595177636917791e-16
9.298793137565554e-16
9.623646349791678e-16
9.539524436111769e-16
9.068345571509164e-16
8.2750981953901665e-16
7.25336701200803e-16
6.108690605808664e-16
4.942890346287459e-16
3.8417892514055353e-16
2.8676698859023084e-16
2.0566991358897565e-16
1.4206220945296495e-16
9.514458341757196e-17
6.276339176140478e-17
4.2045895957501864e-17
2.995023179678992e-17
2.367204246644987e-17
2.0890692095053006e-17
1.9869566528486722e-17
1.944403351303161e-17
1.8937567553555446e-17
1.8044059543691303e-17
1.6706116720124576e-17
1.5008764797419558e-17
1.3098104366650043e-17
1.1126758422131162e-17
9.2229597569829e-18
7.4776922486222e-18
5.943820953323706e-18
4.641893448994704e-18
3.568611241215811e-18
2.7053717379827824e-18
2.025480942414222e-18
1.4995141929815432e-18
1.0988521018710341e-18
7.976996845708793e-19
5.739890144761244e-19
4.095458677706983e-19
2.8982808179692962e-19
2.0345705026618692e-19
1.4168573018903984e-19
9.788580581723815e-20
6.709444109719945e-20
4.563458768130715e-20
3.08080076274961e-20
2.0653092679408974e-20
1.375710858013542e-20
9.112504960801024e-21
6.0080646124448746e-21
3.9471660951689425e-21
2.586922600188008e-21
1.6932744672874291e-21
1.1082011368887599e-21
7.260834539579387e-22
4.769177648753182e-22
3.1459849252205494e-22
2.088860621891933e-22
1.3999598355857315e-22
9.500569584702713e-23
6.549063118904646e-23
4.5974351138350107e-23
3.291124635605083e-23
2.4017026594933487e-23
1.7827739533977708e-23
1.3410059512058557e-23
1.017188882125345e-23
7.739110359139357e-24
5.8755708444334434e-24
4.431145493594761e-24
3.3080733331692312e-24
2.439308872709434e-24
1.77497350967249e-24
1.274572940005951e-24
9.03685386820832e-25
6.341386345041501e-25
4.458547081795018e-25
3.2666146029198987e-25
2.6546391615742446e-25
2.388291900114037e-25
2.063865053772415e-25
1.5834489714892199e-25
3.043295314708662e-25
1.61844851675682e-24
7.458194920451443e-24
2.889674858807625e-23
1.0300430267433321e-22
3.544640066792799e-22
1.196438115627183e-21
3.965361546165914e-21
1.2874670608607736e-20
4.0883980685746194e-20
1.2691384760156065e-19
3.851250790077725e-19
1.1425442167508112e-18
3.313949796230708e-18
9.397729497537072e-18
2.605529949709298e-17
7.062423949804794e-17
1.871470956246883e-16
4.8480758625780945e-16
1.227710807597611e-15
3.0390942776037532e-15
7.353472888423578e-15
1.7390726209491585e-14
4.0197080053279846e-14
9.080204856179225e-14
2.0044358066879654e-13
4.3236783860752817e-13
9.11270168372475e-13
1.8764623933267455e-12
3.77482322432382e-12
7.417906305664459e-12
1.423826028270729e-11
2.6692259990851272e-11
4.886836360158401e-11
8.736647949324257e-11
1.525093688436308e-10
2.599217182657109e-10
4.324565536763045e-10
7.023534747284833e-10
1.113376170571021e-09
1.722506764432877e-09
2.6005975510843204e-09
3.8312421332178925e-09
5.507090243168904e-09
7.722962163104742e-09
1.0565474671875075e-08
1.4099486797601907e-08
1.835246224894312e-08
2.329869986204448e-08
2.8846106046027542e-08
3.482853977050168e-08
4.1006540834919036e-08
4.707834305024628e-08
5.270152340996296e-08
5.752368262259637e-08
6.121858863860951e-08
6.352271502580844e-08
6.426649113234625e-08
6.33950914712996e-08
6.097519903596078e-08
5.718656967677794e-08
5.229987963288895e-08
4.66446611200654e-08
4.057261710117488e-08
3.442197542971032e-08
2.8487800840235067e-08
2.300160047156645e-08
1.8121571328820507e-08
1.3932917271922434e-08
1.0456190033377585e-08
7.660795137155589e-09
5.480671901065531e-09
3.829574912043927e-09
2.6141334612492144e-09
1.7437131212286953e-09
1.1368620595006218e-09
7.246805695890291e-10
4.517696493593431e-10
2.755173268805435e-10
1.6442805367826846e-10
9.60583473418136e-11
5.494983716222455e-11
3.079016944518584e-11
1.6905042123827374e-11
9.097551079903873e-12
4.8004656282318055e-12
2.4845056499450444e-12
1.2616583279716618e-12
6.28833935553904e-13
3.0772979268218124e-13
1.4790701278885563e-13
6.984560177326917e-14
3.241640184701773e-14
1.4791395032392857e-14
6.6376416152636444e-15
2.9303468222463053e-15
1.2731025312728366e-15
5.444821828111294e-16
2.2930568189657053e-16
9.512391931681541e-17
3.888116345636807e-17
1.5663613788440968e-17
6.221199727262161e-18
2.4367422351878427e-18
9.414982595711337e-19
3.5894047346432267e-19
1.3506224634000888e-19
5.0172625231859145e-20
1.8404781473793018e-20
6.6685605219008895e-21
3.637453681039955e-21
1.3071173340616593e-21
4.641620923736831e-22
1.6291126923061397e-22
5.652510803584573e-23
1.9391648172252245e-23
6.578608259159703e-24
2.207234803730474e-24
7.324785715989854e-25
2.4044062498750705e-25
7.808162006109666e-26
2.5093495311207215e-26
7.986374559845317e-27
2.5203009753267406e-27
7.900876790848978e-28
2.4660389158302616e-28
7.6748654483688e-29
2.3748100951028398e-29
7.225083504952496e-30
2.1431020826186492e-30
6.387306009222795e-31
1.976550819502995e-31
5.037414139842667e-32
8.323477593902868e-33
3.217464787376746e-32
9.03042597967066e-32
1.4444447092254605e-31
1.7948580846787479e-31
2.8748912334001713e-31
8.149415326529797e-31
2.4760781422718056e-30
6.376647263031156e-30
1.4324724004890526e-29
3.0554386592228296e-29
6.669181228653286e-29
1.5223741518827194e-28
3.5372630846398506e-28
8.097014370061566e-28
1.80108727092438e-27
3.905873867799099e-27
8.34444987198616e-27
1.7723877802390352e-26
3.7568105610821535e-26
7.934998494915309e-26
1.663822739115592e-25
3.4520090950496688e-25
7.075658458753082e-25
1.4328891380731764e-24
2.869376912928764e-24
5.687110979008331e-24
1.1162304002089013e-23
2.1697111061437215e-23
4.1757601867467944e-23
7.954707596905337e-23
1.4996053544425323e-22
2.7974863869000323e-22
5.164500827384051e-22
9.4367827767013e-22
1.7070032125823554e-21
3.0573105553116784e-21
5.422688475361449e-21
9.526384169015033e-21
1.6578317526300938e-20
2.8582579603727344e-20
4.8825262451717915e-20
8.263821563317298e-20
1.3857732447270027e-19
2.3021046381789403e-19
3.7878032198746976e-19
6.170867847080042e-19
9.95011563727258e-19
1.5871626067277813e-18
2.503111232758224e-18
3.9005770355778036e-18
6.001613280149375e-18
9.11127702576795e-18
1.363735747571906e-17
2.0108441719041202e-17
2.9185954714189495e-17
4.1663984111716304e-17
5.844903235912091e-17
8.051087686354013e-17
1.0879619930150654e-16
1.440993947702707e-16
1.8689071726656665e-16
2.3711099731043016e-16
2.9395417765217384e-16
3.556723804773692e-16
4.1945041706769186e-16
4.814037170832204e-16
5.367511589254831e-16
5.801982995427875e-16
6.06535103338922e-16
6.114071243586534e-16
5.9216664113575315e-16
5.486617639247182e-16
4.837915717206543e-16
4.0365826309496136e-16
3.171925724909311e-16
2.3521608136445466e-16
1.690206934255387e-16
1.2866662985984505e-16
1.2129411948881492e-16
1.4978062431745277e-16
2.1203681324806858e-16
3.0112178995622376e-16
4.0619393894046044e-16
5.141372964802785e-16
6.115592865196146e-16
6.867809434708485e-16
7.314534225819212e-16
7.415287253525008e-16
7.174608204085407e-16
6.636761310560732e-16
5.874899672986485e-16
4.9772899106164e-16
4.033375473426309e-16
3.1220379468534693e-16
2.3035940824216046e-16
1.6160949177587992e-16
1.0756092449607145e-16
6.795434449557023e-17
4.1174548728446976e-17
2.4814602331982134e-17
1.6192461153128058e-17
1.2754663271716608e-17
1.2339241786941885e-17
1.3301619789780577e-17
1.452857228948064e-17
1.5375489280124418e-17
1.556280392910717e-17
1.5061593629066537e-17
1.3989333621905783e-17
1.2527382339664531e-17
1.086387990149807e-17
9.160237605485568e-18
7.53637253700976e-18
6.068866855497754e-18
4.796649728137894e-18
3.729954918682809e-18
2.859676308685887e-18
2.165488155691867e-18
1.622050259861544e-18
1.2032436694602822e-18
8.847218114985219e-19
6.451907333074113e-19
4.668293583156085e-19
3.3519134552857324e-19
2.388395729660606e-19
1.6887894402558163e-19
1.1848519190761675e-19
8.247928688485306e-20
5.696655725578373e-20
3.9042413999761615e-20
2.6558249181879252e-20
1.7938096234272628e-20
1.20364806550038e-20
8.028976689063219e-21
5.3284435793365464e-21
3.521322285394173e-21
2.3195681351247178e-21
1.5247455350239193e-21
1.0015434102325863e-21
6.585297373762127e-22
4.343973632291576e-22
2.883012793600073e-22
1.9317826584044887e-22
1.3118940688632801e-22
9.064001644649773e-23
6.390955472226642e-23
4.6064713115721865e-23
3.393312847729272e-23
2.548796615771467e-23
1.9442197441222868e-23
1.4983426683359087e-23
1.1601745512187113e-23
8.978273661541941e-24
6.912919541163353e-24
5.277549666171066e-24
3.985917711813512e-24
2.9750175427250946e-24
2.194532593480111e-24
1.6020634499886216e-24
1.1619016702150083e-24
8.444698273454734e-25
6.231419030846383e-25
4.671470105806831e-25
3.358021181915303e-25
1.89233496421972e-25
3.711755000899548e-26
4.5636785521702404e-26
7.483435645941081e-25
3.620319816594697e-24
1.3172734925089983e-23
4.4727214888305777e-23
1.5137337412958949e-22
5.123192689004709e-22
1.712479271689843e-21
5.606132088799946e-21
1.7926873625760397e-20
5.59949160178296e-20
1.7093010093288725e-19
5.100966979101159e-19
1.48830363955301e-18
4.2455363189078974e-18
1.1840318386038753e-17
3.2282983206373125e-17
8.605071295944189e-17
2.2423108248843584e-16
5.711960464579221e-16
1.4223529179358064e-15
3.4621394009981425e-15
8.23714416463228e-15
1.9154973296320396e-14
4.353465212064285e-14
9.669661867945502e-14
2.098855314117131e-13
4.4516340338486253e-13
9.225532165180882e-13
1.8679548869995e-12
3.6949715670700405e-12
7.139886570230925e-12
1.347633637928073e-11
2.48437271451757e-11
4.4729029225980036e-11
7.864171376003039e-11
1.350112248593682e-10
2.263094380421565e-10
3.703512350209544e-10
5.916513926394132e-10
9.226179516430136e-10
1.404252773217696e-09
2.0859323716596147e-09
3.0237909316121785e-09
4.277263993246868e-09
5.903513742405899e-09
7.949765707271961e-09
1.0444029116411158e-08
1.3385191294102548e-08
1.673396592052295e-08
2.0406499245682083e-08
2.427245953410055e-08
2.815905613159902e-08
3.186164161183143e-08
3.5160439349496914e-08
3.7841713030146346e-08
3.9720627466352696e-08
4.066241771980933e-08
4.059848540154338e-08
3.953473397356455e-08
3.755072406321224e-08
3.478980973740582e-08
3.144195868316209e-08
2.7722125197180855e-08
2.3847597664042838e-08
2.001760414464134e-08
1.6397722328818144e-08
1.3110525245909553e-08
1.023268261638235e-08
7.797690857712129e-09
5.802702651528627e-09
4.217639239074697e-09
2.9948598392395016e-09
2.0780241337623804e-09
1.4092769671517343e-09
9.343804950600466e-10
6.05825716464981e-10
3.8422674433381655e-10
2.384333186073727e-10
1.4481479952574227e-10
8.611047841315971e-11
5.0145188713015966e-11
2.8606730902726257e-11
1.5992274921098284e-11
8.763834160467915e-12
4.709337862679198e-12
2.4822639483561116e-12
1.2838062078691834e-12
6.517115771212543e-13
3.24830416040572e-13
1.590170142701047e-13
7.648139962651813e-14
3.6151986019450285e-14
1.680003911581666e-14
7.677621223085111e-15
3.451567712526976e-15
1.5269083968712344e-15
6.648877487687313e-16
2.850706832502093e-16
1.2037987424509373e-16
5.008163868676224e-17
2.053291355399147e-17
8.29835227747313e-18
3.306906105524876e-18
1.2997431621930058e-18
5.039799440124048e-19
1.928415524972175e-19
7.283303522269441e-20
2.7158292186509473e-20
1.0000588921430173e-20
5.38000595912707e-21
1.963539758049208e-21
7.080073465588265e-22
2.5226760901984616e-22
8.883623858267097e-23
3.092407868085113e-23
1.0642586787067088e-23
3.621604806519788e-24
1.218754018995716e-24
4.056570673771594e-25
1.3357558913998876e-25
4.3528959203752636e-26
1.404640465513135e-26
4.4921065260059326e-27
1.4251786400827813e-27
4.489406332947814e-28
1.404017452388505e-28
4.3507789807711234e-29
1.3317024147261194e-29
4.0310204638139e-30
1.2192980729728286e-30
3.7067625935092762e-31
1.146143656504195e-31
4.704008539977934e-32
3.958138597818097e-32
4.393827299551832e-32
4.0060490204107185e-32
2.089218742362408e-32
1.2943596391787197e-32
1.1649639437789924e-31
4.953591802652251e-31
1.290047359412033e-30
2.6094656227167453e-30
4.965432629560732e-30
1.0582271056672279e-29
2.5869997190452503e-29
6.523789967782443e-29
1.5720310638824429e-28
3.5708360440557315e-28
7.787515319850364e-28
1.6733985936168977e-27
3.6090548156713015e-27
7.847734240830014e-27
1.709757850997218e-26
3.698491773010322e-26
7.895015794607872e-26
1.6601404038635119e-25
3.4431052022346447e-25
7.0596998391889495e-25
1.433766894777962e-24
2.886557775901665e-24
5.759966724064109e-24
1.138452809503238e-23
2.227309537039475e-23
4.311660859181104e-23
8.257802365650296e-23
1.5648996235141487e-22
2.9348976739336366e-22
5.448345812529204e-22
1.0013010199381495e-21
1.821956421442855e-21
3.282595664881504e-21
5.856361428799895e-21
1.0346344095152185e-20
1.810092342119907e-20
3.135871010577429e-20
5.379284680454639e-20
9.135578911191589e-20
1.5356658617864747e-19
2.5543261830814987e-19
4.2025305502213854e-19
6.836028868838277e-19
1.0988269943023498e-18
1.7443551116745395e-18
2.733039729421473e-18
4.2234671069894365e-18
6.432737909561313e-18
9.649507479202894e-18
1.4245096246368006e-17
2.0679271824358254e-17
2.949601177496113e-17
4.130346318577505e-17
5.673185880064669e-17
7.636389599825455e-17
1.006346459147144e-16
1.2970293155815893e-16
1.6330344343017388e-16
2.0059817360815773e-16
2.4005569944433972e-16
2.7939510863023657e-16
3.1563476947269337e-16
3.4528125423879087e-16
3.646777139812291e-16
3.7050300760331426e-16
3.6037526465202617e-16
3.3347271602537765e-16
2.9105074996392364e-16
2.36719423223008e-16
1.7636091036221917e-16
1.176168742162192e-16
6.895746122414228e-17
3.844170390002338e-17
3.236985200773669e-17
5.4084817876366996e-17
1.0318100812584985e-16
1.7531610654000067e-16
2.6270459565964467e-16
3.552275887081349e-16
4.419584134728849e-16
5.128128731473463e-16
5.600107411390044e-16
5.790852211888988e-16
5.692842642609915e-16
5.333418583791395e-16
4.767240937500925e-16
4.0654486724746847e-16
3.3038330469793387e-16
2.552185416211534e-16
1.8663976631419428e-16
1.2841037950855497e-16
8.238586464159043e-17
4.872227909459198e-17
2.6275552183186803e-17
1.308250340407922e-17
6.8278592232883346e-18
5.22912151530298e-18
6.303722931122231e-18
8.512759475404038e-18
1.0797731749275861e-17
1.2539203126732275e-17
1.346969899411234e-17
1.3569772221936264e-17
1.296883758180519e-17
1.1863844231937796e-17
1.0461130356903979e-17
8.941029109027472e-18
7.44130814553401e-18
6.054086571271798e-18
4.830935143702014e-18
3.7918063801706896e-18
2.9347230602084664e-18
2.244398708315566e-18
1.698963568110342e-18
1.274654348989034e-18
9.487169610574354e-19
7.009356560284006e-19
5.142178727659561e-19
3.746005154446757e-19
2.709506837214923e-19
1.945429425470514e-19
1.3862113465776752e-19
9.799975669630579e-20
6.872617755326986e-20
4.78060320084379e-20
3.298517710510449e-20
2.2578627657701844e-20
1.5337003474659547e-20
1.0342408284519708e-20
6.927323552207525e-21
4.61158507401804e-21
3.0536727035252002e-21
2.0133919584749716e-21
1.3236267998172573e-21
8.692717975728635e-22
5.717745088008636e-22
3.77982266251233e-22
2.5221971686832894e-22
1.707359387136003e-22
1.1785289557590533e-22
8.33150027561473e-23
6.0477403169243e-23
4.507652457774839e-23
3.440338846390248e-23
2.675384472632061e-23
2.1067108572352266e-23
1.6690297646290895e-23
1.3225849533456194e-23
1.0432816903565644e-23
8.163193838721686e-24
6.321381215958726e-24
4.8393530427971204e-24
3.662682795248755e-24
2.7438419403848918e-24
2.039549380691622e-24
1.509120558471103e-24
1.1118986654925266e-24
8.051115433452086e-25
5.483292310194294e-25
3.227459854866678e-25
1.6595809392855866e-25
2.0683504433265085e-25
6.917652921489498e-25
2.1172211175900767e-24
6.042018338123263e-24
1.8500474748024807e-23
6.188350038952311e-23
2.132671276269837e-22
7.248873135472343e-22
2.3975385052262558e-21
7.717562672510672e-21
2.424091823782686e-20
7.441533373085061e-20
2.2337200366645307e-19
6.556056733185116e-19
1.881313964989104e-18
5.277883605452981e-18
1.4475417339382995e-17
3.881264093877172e-17
1.017377259929822e-16
2.6070502477641494e-16
6.53075652804056e-16
1.5992252542931041e-15
3.827990383678298e-15
8.95628613885552e-15
2.048141028497825e-14
4.577659336263953e-14
9.998939815395933e-14
2.1343460251932876e-13
4.4519279295520867e-13
9.073493402299672e-13
1.8068143373978851e-12
3.515066658549572e-12
6.680395472160674e-12
1.2401840092758657e-11
2.248803952131622e-11
3.982577994256304e-11
6.887944174190533e-11
1.1633030021937996e-10
1.918400446181832e-10
3.0888324067679456e-10
4.855387728608837e-10
7.450653237128671e-10
1.1160219681145368e-09
1.6316503616289806e-09
2.328233574844984e-09
3.2422128652036924e-09
4.405995095998366e-09
5.8426212691677135e-09
7.559767209647816e-09
9.543858988016767e-09
1.1755332619178866e-08
1.4126165113976652e-08
1.6560680952109018e-08
1.8940262991186983e-08
2.1131998528460662e-08
2.300056531942349e-08
2.442195784908441e-08
2.529714027349365e-08
2.5563533313303385e-08
2.5202472884834596e-08
2.424139608817009e-08
2.2750394820213874e-08
2.08337383558914e-08
1.861779341904595e-08
1.6237289398230487e-08
1.3821994121664574e-08
1.1485589173208666e-08
9.317960919894237e-09
7.381408568238252e-09
5.71057888861808e-09
4.315402552992099e-09
3.186004566321677e-09
2.298500885824204e-09
1.620730982495458e-09
1.117236630740529e-09
7.530993892742431e-10
4.965258302907725e-10
3.2027835622913876e-10
2.0217486910564032e-10
1.249285511860861e-10
7.558843985507297e-11
4.479556991859914e-11
2.600937318808769e-11
1.4800311072802303e-11
8.256394516897273e-12
4.516710948162531e-12
2.4238227347287063e-12
1.2763242165220427e-12
6.596868844259067e-13
3.3478529761813443e-13
1.6687115166895463e-13
8.171779220744106e-14
3.932835870358232e-14
1.860721074956507e-14
8.657137183215174e-15
3.96200428130071e-15
1.78415196642243e-15
7.907735049257462e-16
3.450652095673393e-16
1.4828686329755757e-16
6.277378959439042e-17
2.6184716173895152e-17
1.0765365561845897e-17
4.36351361159218e-18
1.744148202487538e-18
6.876702949333492e-19
2.675067041147075e-19
1.026955314106619e-19
3.891642825496348e-20
1.4560559160468478e-20
7.72544493720346e-21
2.8630656146799063e-21
1.0480636183848847e-21
3.790305001636915e-22
1.35446597254993e-22
4.783459895027095e-23
1.6698010886391185e-23
5.762381744315557e-24
1.9661751848117396e-24
6.634429854619608e-25
2.2143518966777814e-25
7.31286785614963e-26
2.390597811882228e-26
7.739535069459863e-27
2.4826177577405475e-27
7.891693661185981e-28
2.4849875083804546e-28
7.743110801715002e-29
2.385427839562221e-29
7.27539411328123e-30
2.208176322982715e-30
6.750217437019537e-31
2.164414215164005e-31
8.121775355784996e-32
3.9883304649223567e-32
2.527325801358614e-32
1.7442862262815183e-32
8.02358041069959e-33
4.31090595909179e-33
3.9245036372306174e-32
1.4900361667906753e-31
3.2129471274876653e-31
4.8701670727036004e-31
6.6887322309067935e-31
1.3659584648847272e-30
4.135000650056465e-30
1.2213705185484016e-29
3.1200982068960206e-29
7.078593855756558e-29
1.5089821659229196e-28
3.1979125764120106e-28
6.976490592397577e-28
1.5684717843567319e-27
3.560452112806457e-27
7.995736296791367e-27
1.758756462883682e-26
3.7878091603292177e-26
8.024583288182228e-26
1.681311540908127e-25
3.4961417732866394e-25
7.221748105995272e-25
1.4804499715079628e-24
3.0071432097539324e-24
6.044632837166688e-24
1.20165467165358e-23
2.3625047449071225e-23
4.594809635394027e-23
8.84304155057518e-23
1.6845032595560791e-22
3.1763090470117743e-22
5.928739844341727e-22
1.0954253911889068e-21
2.003425598828085e-21
3.626795603790896e-21
6.4985665419021475e-21
1.1524710309479219e-20
2.0226211098242015e-20
3.5123724858739587e-20
6.033783211808126e-20
1.0250722081493361e-19
1.721624756257875e-19
2.8573133290897333e-19
4.683849371575925e-19
7.579502543737719e-19
1.2100896585889407e-18
1.904853911684199e-18
2.9545103968059486e-18
4.5121928302224446e-18
6.780378370577678e-18
1.0017466344971957e-17
1.453985487182056e-17
2.0716013129299625e-17
2.8948358374724385e-17
3.963861108136182e-17
5.3133149510210543e-17
6.964716202043247e-17
8.917042952372775e-17
1.1136338585194274e-16
1.3545920611559282e-16
1.6019486516169652e-16
1.8379942593684734e-16
2.0406869747500052e-16
2.1854917829304325e-16
2.248389583169263e-16
2.209889252782513e-16
2.0595703019747638e-16
1.8003771439003537e-16
1.4516690556193416e-16
1.0500012871133929e-16
6.46847948094442e-17
3.0299243621372933e-17
8.003676390645955e-18
3.0260010001339313e-18
1.8667457334723603e-17
5.553776345382784e-17
1.1120422718929674e-16
1.8036413742875295e-16
2.5554038097699687e-16
3.281839173909456e-16
3.899744579796868e-16
4.3406736119923685e-16
4.560513739608702e-16
4.544523360157096e-16
4.307217263193948e-16
3.8875791620924775e-16
3.3409546864137974e-16
2.7294572848432664e-16
2.1127466968348219e-16
1.5406787416350582e-16
1.0487221686470196e-16
6.563687017500071e-17
3.68181666085497e-17
1.767390332178481e-17
6.656561703155215e-18
1.8195622608619374e-18
1.170083077122405e-18
2.92855810354747e-18
5.6816485230241236e-18
8.437053193460373e-18
1.060229512889467e-17
1.191526067715304e-17