# vtk DataFile Version 4.1 
COMMENT
ASCII
DATASET STRUCTURED_POINTS 
DIMENSIONS 300 300 1 
ORIGIN 0 0 0
SPACING 0.020943951023931952 0.020943951023931952 0 
POINT_DATA 90000
SCALARS U double 1
LOOKUP_TABLE default
5.29668359122766e-19
1.627528487577581e-19
1.5744072750274645e-19
3.7300089327525687e-19
3.1447336375145126e-19
1.8309908502517588e-20
7.898988518424308e-19
7.363255763453035e-18
3.635710831604949e-17
1.3981476815601343e-16
4.622033046412982e-16
1.3718684176124847e-15
3.749033852915928e-15
9.576708956629856e-15
2.307421167059889e-14
5.273673660655517e-14
1.1478562071094436e-13
2.386683117398175e-13
4.753692000791265e-13
9.094840773546092e-13
1.6765580565566178e-12
2.988791933184398e-12
5.176513045554272e-12
8.763844749698346e-12
1.4625608711074698e-11
2.4346870758147803e-11
4.1094254828271693e-11
7.175357349473783e-11
1.3206398717164366e-10
2.5843578543950585e-10
5.3372062381067e-10
1.1401684785110371e-09
2.4617969701708635e-09
5.270521426801432e-09
1.1044658949803628e-08
2.2482242565587235e-08
4.428067403003549e-08
8.425321898126703e-08
1.548365067876251e-07
2.7500772240737633e-07
4.725727294089151e-07
7.867018156760991e-07
1.27046560878935e-06
1.9929385846658642e-06
3.0401725679087014e-06
4.514013132807339e-06
6.527436007094449e-06
9.195038792620084e-06
1.2617863459478205e-05
1.6863168929176373e-05
2.194221541771714e-05
2.7792167179580456e-05
3.427081852446943e-05
4.117341248954191e-05
4.8277738263876144e-05
5.541616873631762e-05
6.2562249123721e-05
6.990794410305095e-05
7.790045379851081e-05
8.720949998658192e-05
9.860987414802717e-05
0.00011278828465408304
0.00013011164613010415
0.00015041598555551428
0.00017288130564426025
0.00019604274789746618
0.00021795452764954447
0.0002364803488623988
0.0002496466377117965
0.000255975987225656
0.000254724143778007
0.0002459720390499816
0.00023056436612017172
0.00020992435412570693
0.00018579926009655345
0.00015999735889088835
0.0001341666218769009
0.00010964463770243592
8.738697349927424e-05
6.796368444760024e-05
5.1604148355975775e-05
3.8268506739424477e-05
2.7727297052880074e-05
1.9636419111938642e-05
1.3600112346249384e-05
9.218949276509713e-06
6.122730792096089e-06
3.9898633563227985e-06
2.555683713122974e-06
1.6125543614586475e-06
1.0045375914608193e-06
6.191541692713863e-07
3.782275760822018e-07
2.292092922259641e-07
1.377854257576923e-07
8.206966899117743e-08
4.8340598883890256e-08
2.8087078563757158e-08
1.6056048159507478e-08
9.009974852693818e-09
4.955563501282459e-09
2.670307433265054e-09
1.4112345302829688e-09
7.337194341215305e-10
3.773441131033552e-10
1.9356872009986068e-10
1.0015661035261235e-10
5.2974799666457866e-11
2.9041015971022964e-11
1.6696805227153246e-11
1.014006760363643e-11
6.509373891377139e-12
4.39042427514179e-12
3.076131474302621e-12
2.207516372560769e-12
1.5997345118913276e-12
1.15625076954303e-12
8.252795977552168e-13
5.772564510725375e-13
3.933125016636589e-13
2.5968473635331524e-13
1.6527599413847476e-13
1.0076180745286772e-13
5.834151934891315e-14
3.167179910596582e-14
1.5787902615408824e-14
6.9625783344154406e-15
2.5161357080185355e-15
6.084220488384375e-16
3.929203969848892e-17
7.372976260311128e-17
2.9833421911614386e-16
5.096168022878084e-16
6.312256972269283e-16
6.557977084505901e-16
6.067425890399795e-16
5.153549369513164e-16
4.0899769011321866e-16
3.066376057965232e-16
2.186966308177417e-16
1.4894888982337186e-16
9.695164635300941e-17
6.01622464359571e-17
3.5401691107646916e-17
1.9658459984323792e-17
1.0398323779089013e-17
5.59417283390417e-18
3.6590515657526225e-18
3.3972438156680833e-18
4.015266945776189e-18
5.179127508734626e-18
7.077343542922823e-18
1.0451930110192211e-17
1.6584113178863603e-17
2.7255104509230675e-17
4.473137732878058e-17
7.183904818107535e-17
1.1219028672894374e-16
1.7060914038023915e-16
2.537799390637912e-16
3.7111089921936185e-16
5.357649378779419e-16
7.65750685597077e-16
1.0848852475049198e-15
1.5233552108537635e-15
2.11758416082355e-15
2.909322780260244e-15
3.944596852333491e-15
5.274808871785478e-15
6.96542945551798e-15
9.122847308632992e-15
1.1957268818274152e-14
1.5908489681760427e-14
2.1869942101289378e-14
3.1550733224285376e-14
4.800929105690833e-14
7.636781742404727e-14
1.2466591818885212e-13
2.0472907474969183e-13
3.328139365467248e-13
5.296588753437678e-13
8.194395927671881e-13
1.2270481150577235e-12
1.7731480172155184e-12
2.4667270252597374e-12
3.2955837681959343e-12
4.216732251428557e-12
5.151728285933845e-12
5.9973829152919516e-12
6.671523288171028e-12
7.228007021324203e-12
8.097301374747258e-12
1.0542672392403272e-11
1.747672438502297e-11
3.4879880450661066e-11
7.424364830534701e-11
1.5679712315122603e-10
3.208534679514781e-10
6.344914088284232e-10
1.216870971040058e-09
2.272314334970795e-09
4.140757847644485e-09
7.3643239840184045e-09
1.2759829006747387e-08
2.1468394411576413e-08
3.492556126863795e-08
5.466385887957795e-08
8.184051354311506e-08
1.1640578496660299e-07
1.5593522525530703e-07
1.9438763778380664e-07
2.2144448276281313e-07
2.2360358518383008e-07
1.8871098163013583e-07
1.1587056626398318e-07
3.23257410563262e-08
1.7611320532216196e-08
2.3284511929548294e-07
9.496615153280809e-07
2.5697212465594305e-06
5.623248809305121e-06
1.0735230312536047e-05
1.8552086123041906e-05
2.963020448169688e-05
4.429952248754925e-05
6.252747422484468e-05
8.38169718412426e-05
0.00010717252604719625
0.00013115867767761585
0.00015405524162187317
0.00017408878596629243
0.0001896964962467299
0.0001997650363316247
0.00020378895331079458
0.0002019116044838738
0.0001948418142262405
0.0001836722804065692
0.00016965055568736332
0.0001539622087841666
0.00013757616607117446
0.00012117842230216439
0.00010519124491996624
8.985079259885078e-05
7.530412510784183e-05
6.168910465068117e-05
4.917451042010682e-05
3.795619162255277e-05
2.8221163548769345e-05
2.010025880643995e-05
1.3629852439206841e-05
8.736177860761674e-06
5.245696674694175e-06
2.915928691421622e-06
1.4758784337758775e-06
6.645592682677664e-07
2.591858077823771e-07
8.943204404294318e-08
3.871638215401662e-08
3.641350421284293e-08
4.5796827872934915e-08
5.1782681453614614e-08
5.0982951491264606e-08
4.496364551931524e-08
3.64503886756742e-08
2.7664628441746493e-08
1.9904901189504163e-08
1.3688485739664e-08
9.041486524196562e-09
5.750138924601125e-09
3.5235255015099756e-09
2.0794638668364927e-09
1.1806958024335196e-09
6.441008044628551e-10
3.371243157831569e-10
1.690678929272232e-10
8.113756044316487e-11
3.721962246386032e-11
1.6302965099811516e-11
6.813482837240719e-12
2.7165374774938787e-12
1.0348211922138861e-12
3.788198054462553e-13
1.3541099730229144e-13
4.902823176904994e-14
1.9181165490417642e-14
8.672478657749528e-15
4.568465902912801e-15
2.6398725580966384e-15
1.562311066701321e-15
9.079831393312235e-16
5.082004584323508e-16
2.7181051017059623e-16
1.3889473474558694e-16
6.832548381784887e-17
3.2598856958196647e-17
1.478355568559921e-17
5.96845018993675e-18
2.1229131763219782e-18
1.0198721092261243e-18
8.388911912541599e-19
7.507465322986543e-19
9.890087339366996e-20
8.353336384261194e-20
2.7323858911776587e-19
2.612600990444565e-19
1.7326079620134228e-19
5.574293784587701e-19
3.065132929436298e-18
1.4283973309784474e-17
5.574073522953467e-17
1.879546496104531e-16
5.689197139714689e-16
1.5886690487938236e-15
4.155265542370817e-15
1.0261846215330938e-14
2.4045877394015938e-14
5.366001734202204e-14
1.1440916247252854e-13
2.3380074503629236e-13
4.595253694713643e-13
8.72251986252569e-13
1.60719683107653e-12
2.8931859076571437e-12
5.128586229445328e-12
9.037737059315602e-12
1.600876047993523e-11
2.885073915831723e-11
5.3528293102809786e-11
1.0313600972939509e-10
2.0680934812591092e-10
4.289430145752301e-10
9.086267190913589e-10
1.936168049506058e-09
4.093092767337952e-09
8.49334515588033e-09
1.717450759798285e-08
3.3695361856146675e-08
6.39960752743114e-08
1.1756656331465473e-07
2.0894594813806054e-07
3.5954126126013226e-07
5.99702455256607e-07
9.709071694227048e-07
1.5277589328101172e-06
2.3392447792411807e-06
3.48831811398209e-06
5.068444652320734e-06
7.17549914851166e-06
9.893714429284971e-06
1.327570132122908e-05
1.7319121521916937e-05
2.1946117099018158e-05
2.6995003186241386e-05
3.22351952717885e-05
3.741383320138041e-05
4.233481105836583e-05
4.695854446172409e-05
5.149699732976916e-05
5.646865462214001e-05
6.267819238351557e-05
7.109934085247548e-05
8.266590711692098e-05
9.800833597462521e-05
0.00011720036326550603
0.00013959063111695233
0.00016378057952454053
0.00018777397058392575
0.0002092755315508807
0.00022607244735999707
0.00023640809719109793
0.000239260846093008
0.00023446990359857786
0.0002226940999905037
0.00020523250497668554
0.00018376475082311093
0.00016007713480222543
0.00013582960909483757
0.00011239618393806953
9.07866048229337e-05
7.163803653177761e-05
5.525545796311693e-05
4.167806314476347e-05
3.075319685667498e-05
2.2205705189552435e-05
1.569642088466199e-05
1.0867615021082743e-05
7.375589472103125e-06
4.911704186521971e-06
3.2136269046426987e-06
2.0688305207049556e-06
1.312464304912203e-06
8.216718672352787e-07
5.081915773575815e-07
3.1067907476120935e-07
1.877156296920139e-07
1.1200692763996953e-07
6.590964183921374e-08
3.818225348088233e-08
2.173696952684062e-08
1.214164888612646e-08
6.647335038941176e-09
3.566368385757665e-09
1.8768908236221987e-09
9.713426554014165e-10
4.965217402072062e-10
2.523666827750632e-10
1.287208311052658e-10
6.666445864626846e-11
3.554593406128867e-11
1.9801455510683715e-11
1.1671974229663097e-11
7.330086098913208e-12
4.892665807532923e-12
3.430423591223413e-12
2.4830330974656086e-12
1.8223874389802385e-12
1.335605903153065e-12
9.661757662388647e-13
6.84127059376089e-13
4.712420310955349e-13
3.1419734938954364e-13
2.0179883817325804e-13
1.2415985588037625e-13
7.264676571835524e-14
4.000272421946209e-14
2.0407068218818686e-14
9.412297824584477e-15
3.7823281421579444e-15
1.2786419221521305e-15
4.361704116467474e-16
3.5690641327045793e-16
5.357493050853097e-16
7.23206861988457e-16
8.235336856261076e-16
8.237339154902311e-16
7.475636424119425e-16
6.28482493127685e-16
4.959661342394201e-16
3.704306231133076e-16
2.6304841328436316e-16
1.7779982483355156e-16
1.1407417644303213e-16
6.892157727102857e-17
3.8618838444373936e-17
1.9557172246927685e-17
8.624202359606852e-18
3.2916094733338373e-18
1.5847382558027358e-18
2.044151222714797e-18
3.721559841461304e-18
6.202471560059735e-18
9.624092574295685e-18
1.4659750871620157e-17
2.2463403308636107e-17
3.4598073774693034e-17
5.2997921519441516e-17
8.002582877263966e-17
1.1868331952281957e-16
1.7300885517143413e-16
2.4866761456729716e-16
3.5369185458060737e-16
4.992718538049861e-16
7.004161149362833e-16
9.761947429027819e-16
1.34917422205579e-15
1.8436177959959453e-15
2.4822183850927726e-15
3.2818182291164447e-15
4.250142871390484e-15
5.388515706540526e-15
6.710265138481776e-15
8.291239144243503e-15
1.0376945867781721e-14
1.3578534681828426e-14
1.9193490999907893e-14
2.968074669335874e-14
4.929618621367094e-14
8.484482857197911e-14
1.464236323465816e-13
2.479127574295528e-13
4.06832257159089e-13
6.430401310478835e-13
9.756531461376124e-13
1.4176028812186053e-12
1.967525120114719e-12
2.5994276897457035e-12
3.2521062612870655e-12
3.823019588066109e-12
4.1758196150779985e-12
4.1774520723738305e-12
3.7900516299574175e-12
3.2551750645534798e-12
3.424997192497453e-12
6.323439611961032e-12
1.6077702443622006e-11
4.0486095127959214e-11
9.374915995363205e-11
2.0137991905918283e-10
4.0910398563042917e-10
7.986270169006966e-10
1.5141578915091465e-09
2.8036608721310925e-09
5.0763321862342855e-09
8.970375516420386e-09
1.5410298908768953e-08
2.560976533001553e-08
4.0948191080921394e-08
6.262912213124506e-08
9.104048278045754e-08
1.2481807296951137e-07
1.598061928083543e-07
1.8844099537568354e-07
2.0053578650251072e-07
1.8692321208596057e-07
1.4769849270866979e-07
1.0660313702163973e-07
1.3205604938300233e-07
3.632641031824241e-07
1.0368272164446072e-06
2.5058840314741506e-06
5.241252655486639e-06
9.803690209257982e-06
1.677970066941043e-05
2.6680866692635024e-05
3.981765910741882e-05
5.617056818916055e-05
7.529031310350415e-05
9.626063758516723e-05
0.00011774891722590821
0.00013815149402024126
0.00015581603132384212
0.00016929916003859813
0.00017760240502524076
0.00018032929090258066
0.00017772360500877368
0.00017057912832720568
0.0001600457216646046
0.00014738432842004634
0.00013373503787744823
0.00011995416858707675
0.00010655168549308187
9.372813251387445e-05
8.148174507357245e-05
6.974049073744071e-05
5.847420334545488e-05
4.775637727800327e-05
3.776673326706145e-05
2.874610933255014e-05
2.0928073711561926e-05
1.4474148775967287e-05
9.432943402751983e-06
5.731877503319864e-06
3.1984212668789225e-06
1.5996937890649227e-06
6.865727320737744e-07
2.3064699437410152e-07
4.7399090444041626e-08
4.528103685575004e-09
1.8455030483046384e-08
4.3960599941176034e-08
6.17642459503929e-08
6.744690274233319e-08
6.335882193599734e-08
5.3706883402748084e-08
4.2175799324546615e-08
3.117353482338572e-08
2.190196378348093e-08
1.4715779311280388e-08
9.488241280253393e-09
5.880374097178633e-09
3.5044715603117246e-09
2.0075845711477595e-09
1.1045340759506238e-09
5.829399460190375e-10
2.947095960685137e-10
1.424868818051511e-10
6.575241253952723e-11
2.8889890699779975e-11
1.2048248356965037e-11
4.7502270788354014e-12
1.7621991947740208e-12
6.12607878599965e-13
2.0018203894784989e-13
6.351639795885471e-14
2.191981083347122e-14
9.95113413859814e-15
6.112868170203368e-15
4.236191222520889e-15
2.8938004651173984e-15
1.865806039605564e-15
1.1286773600367967e-15
6.432437240617482e-16
3.476561242243519e-16
1.7940603013595792e-16
8.865598460247009e-17
4.1707392042719186e-17
1.8587351762446537e-17
8.170911876974899e-18
3.926088159552515e-18
1.9897404080186052e-18
2.3641612251950513e-18
8.743709879222135e-19
5.505154996951183e-19
5.379536708991467e-19
4.2791438357688746e-19
3.1947856906753468e-19
4.32969089212171e-19
1.4720100958009391e-18
6.4661736283584485e-18
2.4679665962876885e-17
8.146111389231905e-17
2.4472333346895736e-16
6.8845856809705905e-16
1.83034445730836e-15
4.611798573888119e-15
1.1039523531229872e-14
2.517779159316029e-14
5.487586018817789e-14
1.1466705142100518e-13
2.3058792958992313e-13
4.48408003741661e-13
8.485547058804859e-13
1.575167113021487e-12
2.8959006851322833e-12
5.329264893645706e-12
9.9214616717022e-12
1.8858229464422563e-11
3.6832945868988994e-11
7.410751843794419e-11
1.5325634308415318e-10
3.2356863312191436e-10
6.904937496723845e-10
1.472799494910816e-09
3.107398603540745e-09
6.4304826146895575e-09
1.297202523605647e-08
2.5406232072175238e-08
4.820032172521455e-08
8.849674518617278e-08
1.5725092435468586e-07
2.7063068317411723e-07
4.516630117745025e-07
7.320712350037943e-07
1.1541381839111216e-06
1.7721954960936318e-06
2.6529288543802906e-06
3.87314594683072e-06
5.513194580357042e-06
7.644270814531355e-06
1.030897118413348e-05
1.3497023947582556e-05
1.7122041125742267e-05
2.100932016742963e-05
2.49071938463198e-05
2.8532737671236612e-05
3.165500195702708e-05
3.420554927277713e-05
3.6390115125122206e-05
3.876260773179252e-05
4.222037144160799e-05
4.789260857106797e-05
5.6921927819398255e-05
7.017531892886606e-05
8.795317652502554e-05
0.00010977986143817819
0.00013434782172467113
0.00015964989229355313
0.00018328182570519729
0.0002028470328953273
0.00021636557489066157
0.00022259003199287693
0.00022116090241748335
0.00021258187294277884
0.0001980434718827138
0.00017915680491590216
0.00015766924123387474
0.00013522231208265182
0.00011318708499903289
9.258479807873578e-05
7.407944310764647e-05
5.801844003748542e-05
4.449691923974995e-05
3.342678560799612e-05
2.459939955271565e-05
1.7737231106246665e-05
1.2533888609295942e-05
8.683659896357877e-06
5.902033341686424e-06
3.938505013303513e-06
2.5828694597706426e-06
1.6662662406725346e-06
1.058397023181632e-06
6.623765611172948e-07
4.08550006518564e-07
2.4831738883888723e-07
1.4863778585399325e-07
8.7534642864656e-08
5.065434901465687e-08
2.876506557181775e-08
1.6010685401427362e-08
8.72742125756343e-09
4.657738030682591e-09
2.4350287664945357e-09
1.2489812310390446e-09
6.303842214918083e-10
3.1456074870144594e-10
1.5630049371924622e-10
7.815412411057829e-11
3.9925050485037156e-11
2.126184230984863e-11
1.2073195290352673e-11
7.435034105992825e-12
4.972888005802199e-12
3.553419554945373e-12
2.642842280002098e-12
1.995020896512458e-12
1.499725677844465e-12
1.1086044767055876e-12
7.994078177101671e-13
5.593971641548785e-13
3.7840548013734314e-13
2.465847926703277e-13
1.541998922190571e-13
9.210007840352462e-14
5.2226226176886394e-14
2.7915679070181163e-14
1.3974217479061327e-14
6.5707448884483554e-15
3.0302524717230854e-15
1.5897265794614146e-15
1.1611327636443235e-15
1.126053156054456e-15
1.1718788505456457e-15
1.1700311315470613e-15
1.091458370471016e-15
9.523350847942273e-16
7.824076290348198e-16
6.090309393653364e-16
4.511116932350286e-16
3.185636717526609e-16
2.1424489796047355e-16
1.3652103667633205e-16
8.150043694925678e-17
4.459631041553329e-17
2.1425161067945617e-17
8.209803051633573e-18
1.887820831550227e-18
9.030947607657681e-20
1.0936141370269617e-18
3.785842894147467e-18
7.64569599815381e-18
1.2710505964066614e-17
1.9513167725935493e-17
2.89877490264834e-17
4.2370749030490495e-17
6.11478626559068e-17
8.710574131481439e-17
1.2254033977163106e-16
1.706482618591582e-16
2.360872408257199e-16
3.256370331058326e-16
4.4881943745586675e-16
6.18241383283788e-16
8.493108708677989e-16
1.1588681102001884e-15
1.562245702908161e-15
2.068466988570143e-15
2.673951378387846e-15
3.3565620205382917e-15
4.074514363986931e-15
4.7789343765101035e-15
5.454825590807228e-15
6.212375321072967e-15
7.45730406976188e-15
1.0172107008659227e-14
1.633429892645138e-14
2.9475953493334394e-14
5.534272200775773e-14
1.0253312919483157e-13
1.8288818860223508e-13
3.112653036598301e-13
5.04193842703904e-13
7.768224690129447e-13
1.1376151959761068e-12
1.5805666022361098e-12
2.07547772247279e-12
2.558311139152894e-12
2.926094335642973e-12
3.044446152721035e-12
2.7804811260199057e-12
2.079106766797348e-12
1.105867122833452e-12
4.848298049595708e-13
1.6702142894122655e-12
7.52079863306957e-12
2.323163556179886e-11
5.798149002742253e-11
1.2806674224266824e-10
2.630019255266414e-10
5.170826238437292e-10
9.900099371246754e-10
1.8607107851382773e-09
3.4371540674067602e-09
6.219782695584145e-09
1.096494428748615e-08
1.871625149041009e-08
3.074845888861811e-08
4.834943056635355e-08
7.237059046990875e-08
1.0253565567780699e-07
1.3664846372662735e-07
1.7011180590365246e-07
1.9655420541988805e-07
2.107863997538367e-07
2.1560427780672914e-07
2.3385531307737982e-07
3.2638403824952825e-07
6.147402232686002e-07
1.3048963346849945e-06
2.7051325893774117e-06
5.228671664703593e-06
9.37093324514881e-06
1.5653789356030803e-05
2.4535694215348484e-05
3.6296553116850674e-05
5.0917569079451105e-05
6.798549673561706e-05
8.6653625542121e-05
0.00010568524473067831
0.00012358871368938195
0.0001388295788515556
0.0001500808500761873
0.0001564556949342941
0.00015766444306130738
0.00015405287697345879
0.00014650841745532308
0.0001362565380530931
0.00012460018643956864
0.00011266993108722781
0.0001012468591565044
9.069597402855997e-05
8.101349192776024e-05
7.1958729823476e-05
6.322068712220441e-05
5.456644567033516e-05
4.5932088878449176e-05
3.744042125620491e-05
2.9354311098278842e-05
2.1991978693205827e-05
1.563668241170476e-05
1.046823919928237e-05
6.531517740754441e-06
3.7429249843981836e-06
1.924829906468588e-06
8.52562572108443e-07
2.9925802083451836e-07
6.856424394261222e-08
1.1441552588085379e-08
2.8593157568977396e-08
6.315509243031753e-08
8.897029851743814e-08
9.874227177599047e-08
9.45839636126883e-08
8.178231909301349e-08
6.54504258844471e-08
4.922435462173817e-08
3.5126259783878455e-08
2.3927888205605067e-08
1.561699690173536e-08
9.785573885807515e-09
5.8916081017784605e-09
3.4083392751272762e-09
1.893467350821451e-09
1.00907636678957e-09
5.151140267642099e-10
2.5138914243147936e-10
1.1698046912622505e-10
5.1715933744471154e-11
2.1607647104380534e-11
8.46593957674859e-12
3.073413787273624e-12
1.014630100407386e-12
2.9613522203004477e-13
7.429367440569653e-14
1.7688055257429167e-14
7.689495178224251e-15
7.101844942356051e-15
6.719801777664042e-15
5.473555952980051e-15
3.923563276878195e-15
2.552327336217419e-15
1.5394689344028652e-15
8.735325978664894e-16
4.709061384105631e-16
2.4262858942794185e-16
1.1992855210516264e-16
5.732702725274863e-17
2.7053585159784438e-17
1.2831501201756661e-17
5.886723568719838e-18
8.804379241047198e-18
4.1686755443428665e-18
2.3230152546821804e-18
1.4426428277376335e-18
7.939171842997615e-19
3.0324639564286074e-19
8.52584217426332e-20
6.216446229476256e-19
3.408164189716264e-18
1.21439131036828e-17
3.7001132570120327e-17
1.0745046861663155e-16
3.025121242458171e-16
8.158758672201225e-16
2.0922688289317393e-15
5.101349288527445e-15
1.1855154450544347e-14
2.6330398884726145e-14
5.60499006011555e-14
1.1477318797607998e-13
2.272326588706695e-13
4.3810827583479947e-13
8.305309936179916e-13
1.566577560353485e-12
2.9782238608640343e-12
5.77275476062319e-12
1.1496163144818297e-11
2.357526305619223e-11
4.964165508868156e-11
1.0661989635463853e-10
2.3153349998688723e-10
5.035216172431246e-10
1.086511889191494e-09
2.3074404249836646e-09
4.791326169781221e-09
9.680497861111347e-09
1.896870048044861e-08
3.597974005266156e-08
6.601481363387518e-08
1.1718635903746948e-07
2.0145529697998497e-07
3.358946571033025e-07
5.441994521179672e-07
8.584014228890835e-07
1.3205464554762578e-06
1.983672822891308e-06
2.910793565289846e-06
4.169929574752724e-06
5.823012955264595e-06
7.907328702014806e-06
1.0410655071461626e-05
1.3245435233723932e-05
1.6232207462160813e-05
1.9106030165862653e-05
2.1558959457863523e-05
2.332444019386613e-05
2.4295465398463057e-05
2.4650537618829795e-05
2.4946142904957007e-05
2.6129509600947104e-05
2.9437029948725286e-05
3.617268076506592e-05
4.740043493086901e-05
6.36218804791237e-05
8.452988360272008e-05
0.00010892032929915054
0.00013480584086424859
0.00015971869982051238
0.00018113405469701027
0.00019690888227499154
0.0002056296363871007
0.000206792110903304
0.0002007885186885597
0.00018873019248978333
0.00017217197613675307
0.00015281659079854486
0.00013226484326499222
0.0001118496839255062
9.256126280984916e-05
7.504660279795435e-05
5.965626551657109e-05
4.6510714120791174e-05
3.5566608043796714e-05
2.6672789462786615e-05
1.961339989206107e-05
1.4139814515039144e-05
9.99424295776616e-06
6.927225663792851e-06
4.7101852795773375e-06
3.143484013544204e-06
2.0602988635834107e-06
1.326869013501186e-06
8.399890156190949e-07
5.22794391157662e-07
3.19839986425222e-07
1.922534583790363e-07
1.1345606653124978e-07
6.567166408750208e-08
3.724511837129387e-08
2.067568707097574e-08
1.1224751760654539e-08
5.95617810383417e-09
3.0885320027228868e-09
1.5655868653641673e-09
7.766092550749492e-10
3.7780681574256395e-10
1.8100072007190787e-10
8.608287290327079e-11
4.127615315341146e-11
2.0515790465315406e-11
1.1011224862892013e-11
6.636463762199356e-12
4.5295491334106e-12
3.3924821802093304e-12
2.6608884332629296e-12
2.1055070450672287e-12
1.6435662995243141e-12
1.2510457140034104e-12
9.23297456174688e-13
6.587841828304362e-13
4.536514038835179e-13
3.010559148274296e-13
1.9223860730433774e-13
1.1791180775390095e-13
6.936736267298617e-14
3.914385981706481e-14
2.129382057378851e-14
1.1364601653426614e-14
6.212191209932382e-15
3.7433604828886896e-15
2.6505772685054157e-15
2.1763774208838778e-15
1.9232988250240375e-15
1.7121168977934804e-15
1.483578107754775e-15
1.2354020392140916e-15
9.855365868448213e-16
7.533969217383763e-16
5.523220307771804e-16
3.8822236496289607e-16
2.610361243806391e-16
1.6697200881379238e-16
1.0051803982409097e-16
5.5848167864357e-17
2.7621814267499902e-17
1.132863520602891e-17
3.361050022125286e-18
9.629797796838664e-19
2.1468641658557e-18
5.617228795448104e-18
1.0700901055824173e-17
1.7266763587792065e-17
2.562126773310801e-17
3.63844168391769e-17
5.037546981027288e-17
6.855782938953497e-17
9.209982050790018e-17
1.2259758130904725e-16
1.6247736659615826e-16
2.1554856988476552e-16
2.876164227095037e-16
3.869833547076364e-16
5.245694744042338e-16
7.132726344049983e-16
9.66095595330249e-16
1.2925602208327849e-15
1.6931350617187779e-15
2.1520290809503464e-15
2.630036906116067e-15
3.0614978174512986e-15
3.363154839148131e-15
3.46786326152475e-15
3.402282936199536e-15
3.4335504432634366e-15
4.312702672778911e-15
7.637728126602029e-15
1.6340114850787046e-14
3.525807870857211e-14
7.169055884461794e-14
1.3572622826566504e-13
2.4001865939239034e-13
3.985568762004468e-13
6.239099349758143e-13
9.224898712725486e-13
1.2877063081743633e-12
1.6916456947251588e-12
2.0772821445488804e-12
2.3553451601966737e-12
2.41277093156411e-12
2.1427002858851854e-12
1.5082782738247833e-12
6.527638807249597e-13
6.624917333392476e-14
8.180903268622157e-13
4.877034671613457e-12
1.5598871066206555e-11
3.862103965136411e-11
8.374848278526084e-11
1.690352372340893e-10
3.2919936203285374e-10
6.316241829388471e-10
1.2040273491140259e-09
2.2774342047833205e-09
4.244808355699804e-09
7.727712774562577e-09
1.3629494272433038e-08
2.313502655566438e-08
3.760065410008752e-08
5.827860560329801e-08
8.586247803362494e-08
1.1995574165706768e-07
1.5878046042584568e-07
1.997599370572451e-07
2.419738673161838e-07
2.9176384599993366e-07
3.727390888185846e-07
5.408242536241958e-07
9.035759319333314e-07
1.64074187081176e-06
3.0202813014624105e-06
5.4016043809105844e-06
9.216821647728546e-06
1.492261365281908e-05
2.292079233110619e-05
3.3454527191800315e-05
4.649784538207702e-05
6.166520993393296e-05
7.817180794897428e-05
9.48703109657908e-05
0.00011037516763996793
0.00012326320108259098
0.00013231514145848835
0.00013674458631474405
0.00013635612270425384
0.00013158686243364668
0.0001234137013483075
0.0001131446569803403
0.0001021454424453782
9.157101161019105e-05
8.216957476384297e-05
7.420402650901178e-05
6.750040017704554e-05
6.159669265647341e-05
5.5939872968884125e-05
5.007141677246704e-05
4.3752924841781775e-05
3.700758687802897e-05
3.0081098443436876e-05
2.3347855232882846e-05
1.7198833646830787e-05
1.1945337285258838e-05
7.76095426744246e-06
4.668316402777806e-06
2.5633146476554366e-06
1.2611406440811556e-06
5.469660579346936e-07
2.1786915079055082e-07
1.0905889009910045e-07
1.0376871906502741e-07
1.3053438998093727e-07
1.5332236766376862e-07
1.5956733489765898e-07
1.495669994501581e-07
1.2883356943308728e-07
1.0355532858378423e-07
7.851493196873325e-08
5.6571857429481865e-08
3.893092432311939e-08
2.5670737962934084e-08
1.6250189245644892e-08
9.884398818226856e-09
5.778059313265981e-09
3.2446233006427505e-09
1.7485804468986645e-09
9.03047026335922e-10
4.4599735490442136e-10
2.1002366302910799e-10
9.389893702919113e-11
3.960259863445976e-11
1.559875734682924e-11
5.643142401755522e-12
1.8199825874611697e-12
4.928728491396202e-13
9.688170475731151e-14
8.363699107687061e-15
2.3192487666468278e-15
8.888437651176267e-15
1.2056681113585607e-14
1.1270176480844798e-14
8.703582916878869e-15
5.962679317202312e-15
3.753088069112694e-15
2.214063788498573e-15
1.2395209805580435e-15
6.641091854066465e-16
3.4288097003445585e-16
1.7197206364055047e-16
8.458093018299011e-17
4.093568262850307e-17
1.9285750522787415e-17
3.100278878567632e-17
1.5530363566651567e-17
8.132531144589845e-18
4.254528886011308e-18
1.948983847140051e-18
6.045473937264201e-19
1.2295611154902992e-19
6.580970847484841e-19
2.5155493991922468e-18
6.5383590929405294e-18
1.664299256151785e-17
4.649893731627905e-17
1.332924478132207e-16
3.672704326536059e-16
9.577149782071012e-16
2.371708489230904e-15
5.601217680145969e-15
1.264247963483498e-14
2.7319807785241057e-14
5.6681300128549154e-14
1.1344385615772515e-13
2.2070062840401909e-13
4.2214177121220277e-13
8.061714236897118e-13
1.5643701190682034e-12
3.1321446933254694e-12
6.5206620307278305e-12
1.4083967569357295e-11
3.1252463427327426e-11
7.034449258384768e-11
1.5865995921562529e-10
3.549422745697737e-10
7.812172509326073e-10
1.6810046953066874e-09
3.5194627580003013e-09
7.144936487125329e-09
1.4032841367398769e-08
2.6630478943249098e-08
4.881637703574332e-08
8.648565819512995e-08
1.4828310205865418e-07
2.465338111891205e-07
3.9845434892886175e-07
6.277133230350277e-07
9.662537125513528e-07
1.4558803364338898e-06
2.148416845285297e-06
3.102406259718293e-06
4.373823027730531e-06
5.998802937963927e-06
7.96870164251524e-06
1.0202091633548083e-05
1.2523782003096145e-05
1.4665451902726461e-05
1.6302936458951292e-05
1.7138751714166836e-05
1.7024248096789347e-05
1.6096521574136436e-05
1.4887395710956368e-05
1.4354086642023143e-05
1.5790906600273342e-05
2.061044212088608e-05
3.002484457372995e-05
4.469949236091226e-05
6.447562577021328e-05
8.825287208626987e-05
0.00011408447410831657
0.00013947799676859151
0.00016183256769160753
0.0001789024682665677
0.00018917100582728616
0.0001920494221251094
0.00018787066172829936
0.00017770651854408974
0.00016307903692459614
0.00014565150341654234
0.00012697110098215702
0.00010830423867159934
9.057077668113775e-05
7.435684685434634e-05
5.997369060267821e-05
4.75312307951231e-05
3.700484127616148e-05
2.8285700536872134e-05
2.121448726462656e-05
1.560300429177625e-05
1.1249043506933909e-05
7.948156955585055e-06
5.50380268292886e-06
3.7357668454756693e-06
2.4861917711920854e-06
1.622744732378422e-06
1.0390019476772408e-06
6.526146574658676e-07
4.0207417539761744e-07
2.428847266193641e-07
1.43773939949251e-07
8.333144153786155e-08
4.724914526268371e-08
2.6182573594176447e-08
1.4165444382696372e-08
7.475021205943184e-09
3.843420194452373e-09
1.9234526283405123e-09
9.358320509124649e-10
4.4213886461039126e-10
2.0272047022091843e-10
9.037739204579937e-11
3.9582710565558017e-11
1.7587044016709007e-11
8.527035522231598e-12
4.976168989965107e-12
3.597118126197514e-12
2.9725651040134805e-12
2.5536105852720302e-12
2.1639329228778158e-12
1.7730422636152616e-12
1.3969546897428811e-12
1.057945056886145e-12
7.709253900218847e-13
5.411758374227832e-13
3.663125264591284e-13
2.39270862338667e-13
1.5096323420653056e-13
9.217782599394391e-14
5.4705548547617586e-14
3.185095906164212e-14
1.8523217366826068e-14
1.1082612252643309e-14
7.0752325983576475e-15
4.943410184153548e-15