# vtk DataFile Version 4.1 
COMMENT
ASCII
DATASET STRUCTURED_POINTS 
DIMENSIONS 300 300 1 
ORIGIN 0 0 0
SPACING 0.020943951023931952 0.020943951023931952 0 
POINT_DATA 90000
SCALARS U double 1
LOOKUP_TABLE default
8.513680780183088e-19
1.9676148522200202e-18
4.360687804256074e-18
9.539137125885567e-18
2.092092153544248e-17
4.586084703441692e-17
1.0013067105113618e-16
2.1761263198118499e-16
4.706446991965408e-16
1.0122825629088095e-15
2.163455291849539e-15
4.590661993036e-15
9.663301231681115e-15
2.016168592153662e-14
4.1657704910409546e-14
8.516043997592675e-14
1.7208923286329183e-13
3.4342742718006006e-13
6.76188814301492e-13
1.312303773455015e-12
2.5079171352726628e-12
4.715018844593457e-12
8.712192065842852e-12
1.580644370885642e-11
2.813207388568098e-11
4.9072463879935935e-11
8.382173317289755e-11
1.4007841385573613e-10
2.28813941358855e-10
3.649776897228253e-10
5.678901399714531e-10
8.609642596854057e-10
1.2703526017685335e-09
1.82225822447634e-09
2.539080197304561e-09
3.4352645647777212e-09
4.514366445178641e-09
5.768691635718968e-09
7.181195104383513e-09
8.72602843584034e-09
1.0360963337900351e-08
1.2005563348072569e-08
1.3507303051615773e-08
1.4613935640700235e-08
1.4986693267796532e-08
1.4290556050594336e-08
1.2370946522758304e-08
9.471444416582371e-09
6.389380134990187e-09
4.448728757984472e-09
5.229124879380102e-09
1.0123855192015168e-08
1.995273943400533e-08
3.494031208662188e-08
5.5318675279221095e-08
8.263277425075635e-08
1.2160129377864505e-07
1.822428639242262e-07
2.8199542645044623e-07
4.4771204066765643e-07
7.175799796136182e-07
1.1430156773689507e-06
1.790331249208604e-06
2.7414795592309486e-06
4.092641846292593e-06
5.9490956101522765e-06
8.414960388090226e-06
1.1577231630883264e-05
1.5484958499211458e-05
2.012624968967853e-05
2.5407533537309974e-05
3.114055510037687e-05
3.704240056210811e-05
4.2752086596342984e-05
4.786407003195538e-05
5.1975065953661636e-05
5.473685318506983e-05
5.590543489362919e-05
5.537685200263964e-05
5.3202331002513874e-05
4.9579741920844e-05
4.482339617453069e-05
3.931864792440323e-05
3.3470425214736634e-05
2.765514594904485e-05
2.2183625284027647e-05
1.7279304271520474e-05
1.3072456857860568e-05
9.607924669167034e-06
6.862007615755864e-06
4.763578027859499e-06
3.2150709241510386e-06
2.110287272414257e-06
1.3474406405012962e-06
8.371905226979362e-07
5.063185111295696e-07
2.98166391631461e-07
1.7103972767580803e-07
9.561621392761702e-08
5.211825305016532e-08
2.7717073415591682e-08
1.4392780901640407e-08
7.304819092226439e-09
3.6281322445852954e-09
1.766254117570344e-09
8.444822089995673e-10
3.975492062271959e-10
1.8485069647837938e-10
8.522532253608273e-11
3.9146672021023816e-11
1.8017029410433042e-11
8.364803107752945e-12
3.947197387852506e-12
1.907729162686882e-12
9.50450428750701e-13
4.897124109877464e-13
2.6054055525355396e-13
1.4217241092445625e-13
7.873382718806253e-14
4.371152402545761e-14
2.404654706188264e-14
1.298997867852489e-14
6.866393191713189e-15
3.57981044380499e-15
1.8987403621863884e-15
1.0934961940056967e-15
7.376828984347473e-16
5.910031785570391e-16
5.261997990515089e-16
4.824461875481742e-16
4.3579595646476284e-16
3.8099739856993e-16
3.208511353966387e-16
2.604338567617023e-16
2.0432176764061398e-16
1.5555265218291593e-16
1.1551129497505776e-16
8.423787116443221e-17
6.087071511759679e-17
4.407088105266695e-17
3.235957410745546e-17
2.4348659472812252e-17
1.8871350837815837e-17
1.503292323801481e-17
1.2205219919400183e-17
9.987471621015626e-18
8.152053822387088e-18
6.588959727755001e-18
5.257971367232142e-18
4.153288719788389e-18
3.2819723581419794e-18
2.6551004994539137e-18
2.2891152224177044e-18
2.214423936411587e-18
2.4887484496785524e-18
3.2135600956131444e-18
4.5525672723820124e-18
6.750876955993289e-18
1.0151474844971212e-17
1.520180345486014e-17
2.2437980834586014e-17
3.242924739906115e-17
4.566360304837237e-17
6.236184010908409e-17
8.22273054863129e-17
1.0418036817352502e-16
1.2619974189763667e-16
1.4551193881373912e-16
1.5955785198300567e-16
1.6845847126337606e-16
1.8015827084247004e-16
2.2013301558069712e-16
3.486350576163964e-16
6.900872090456993e-16
1.481659676486528e-15
3.1515935608396566e-15
6.442932007706153e-15
1.2605699575506799e-14
2.3691374298503496e-14
4.299954896985163e-14
7.57507692180392e-14
1.3009563488865763e-13
2.1862343419368914e-13
3.6060935456292747e-13
5.853418938374612e-13
9.370010827092748e-13
1.4817030438522135e-12
2.3174587102098816e-12
3.5878574768935426e-12
5.500185168085509e-12
8.348282339754603e-12
1.2539576280772045e-11
1.862423036537896e-11
2.7322230669784447e-11
3.95417825917076e-11
5.638054054280862e-11
7.910177795560762e-11
1.0908351379755302e-10
1.477533904830573e-10
1.9654844644318652e-10
2.5697556222894295e-10
3.3088535938795784e-10
4.210870664395589e-10
5.323917343970933e-10
6.730558462667405e-10
8.564607847139906e-10
1.102961134935152e-09
1.4428360861005578e-09
1.9245661600142804e-09
2.6406720821381638e-09
3.7998821824208525e-09
5.904658050416246e-09
1.0143415666138675e-08
1.918349873278115e-08
3.8658400194334355e-08
7.977935639976306e-08
1.6365371270702209e-07
3.2802577326080443e-07
6.372034891862929e-07
1.1957884816476275e-06
2.1663404492836404e-06
3.790119654882612e-06
6.408452814598688e-06
1.048010233657721e-05
1.658760870781235e-05
2.5423612888160376e-05
3.77476908866115e-05
5.430642575920502e-05
7.571519432989906e-05
0.00010230949467657764
0.0001339852680557056
0.00017005874813077877
0.00020918300982242322
0.0002493567444608534
0.00028804859019033297
0.000322438316814391
0.00034974861615487743
0.0003676153878256726
0.0003744282955560678
0.0003695731312848477
0.0003535248880721967
0.0003277716459815372
0.0002945860853114225
0.0002566934506314711
0.00021690346680470793
0.00017777484378402167
0.00014136593165929784
0.00010909973752436963
8.174397553919769e-05
5.948445453138913e-05
4.2057405166751977e-05
2.8904158872181967e-05
1.9317718455276047e-05
1.2561407430547385e-05
7.951105512425476e-06
4.901783350860823e-06
2.9448331239950237e-06
1.7250576076108536e-06
9.859511858091289e-07
5.501839317859785e-07
2.9996837880286187e-07
1.5991851213530403e-07
8.343493881087505e-08
4.2640861479709284e-08
2.136831486928932e-08
1.0511228601526304e-08
5.081380467720785e-09
2.4170747680283457e-09
1.1327514270819994e-09
5.236972981983646e-10
2.3915870281002004e-10
1.0801623653669605e-10
4.8304744297380435e-11
2.1411320091855466e-11
9.415636803963508e-12
4.110876394075845e-12
1.7828541903429586e-12
7.681950254023485e-13
3.2881695075775213e-13
1.3979844286847728e-13
5.90485796813964e-14
2.4796700721540046e-14
1.0360829905296316e-14
4.3066731094657854e-15
1.777714313006761e-15
7.266050864397281e-16
2.934952687356838e-16
1.1742850490238025e-16
4.691757917529791e-17
1.880855349518505e-17
7.446297372899471e-18
2.861887967216226e-18
1.1416022399675185e-18
5.148325819534421e-19
1.9528646988902058e-19
2.1211543536667335e-20
2.5915504077852063e-20
1.298859741609002e-19
2.2514568736007007e-19
3.8350686756739563e-19
2.648694057404627e-19
6.816825568578462e-19
1.486567511747258e-18
3.294231240083816e-18
7.503644786039824e-18
1.7057494977533767e-17
3.846606993784849e-17
8.633256233688834e-17
1.9297289208421866e-16
4.2908066516349196e-16
9.480888511415293e-16
2.080104524820994e-15
4.5279033395002506e-15
9.770167832013397e-15
2.0878577433250376e-14
4.414553577317911e-14
9.226666359690546e-14
1.9043759569688455e-13
3.8777718936999655e-13
7.782178992623969e-13
1.5377112975055822e-12
2.988599232241615e-12
5.707499068783505e-12
1.0699866754449511e-11
1.967153538100572e-11
3.543251595088594e-11
6.246648925723271e-11
1.0768316974409827e-10
1.8133002738881385e-10
2.9796488441131083e-10
4.77279291567406e-10
7.444323282328668e-10
1.1294588780473073e-09
1.665347236169876e-09
2.384634231987277e-09
3.3148503269884815e-09
4.4736562995268085e-09
5.8645778171138575e-09
7.473347120272468e-09
9.26302013765837e-09
1.1164505604077822e-08
1.3060471436346813e-08
1.4767174376662317e-08
1.6029840654283153e-08
1.6556280063456386e-08
1.610922978011453e-08
1.4651681308765936e-08
1.249537052923195e-08
1.0364061557206965e-08
9.285111001891235e-09
1.0288890293373127e-08
1.4013546208549325e-08
2.042672208612693e-08
2.8912626692069016e-08
3.8888768620403674e-08
5.093848668824456e-08
6.826829740142026e-08
9.823477256985974e-08
1.5378822224124407e-07
2.548984017185627e-07
4.302173337214286e-07
7.19232149154065e-07
1.174871368738653e-06
1.8659836216549297e-06
2.878470734865713e-06
4.313372505660852e-06
6.280125106202231e-06
8.88374454132118e-06
1.2205887879425167e-05
1.6281497308225374e-05
2.1074690920645432e-05
2.6459182025555404e-05
3.220914686566468e-05
3.800559338039267e-05
4.3460742174224544e-05
4.815908114662037e-05
5.170950271936356e-05
5.379950100162383e-05
5.424094001982763e-05
5.299803931053575e-05
5.0191808385061684e-05
4.608026176704435e-05
4.101894315421529e-05
3.541016077302681e-05
2.9650934037792002e-05
2.408876585636881e-05
1.8991513285783555e-05
1.4533837828874003e-05
1.0799078704660476e-05
7.792760341013755e-06
5.462721684150441e-06
3.720979237216703e-06
2.463518138271036e-06
1.5857250967317563e-06
9.92662198762609e-07
6.045201726359294e-07
3.582608398579889e-07
2.0669202262360507e-07
1.161338779499937e-07
6.357778586549405e-08
3.39311090626716e-08
1.7665171729062905e-08
8.978550343813065e-09
4.459464726694795e-09
2.1670417219551446e-09
1.031830040205031e-09
4.823033168955e-10
2.2184013112983138e-10
1.007189406172875e-10
4.532269005551118e-11
2.032674797855121e-11
9.154816604516712e-12
4.181966560662486e-12
1.9609116964018715e-12
9.55219961999533e-13
4.874554033653487e-13
2.607936574593233e-13
1.451465804581783e-13
8.290518996784289e-14
4.7890444483247526e-14
2.764486789158996e-14
1.5838953422803982e-14
9.011044676520048e-15
5.144336240187178e-15
3.017500250689342e-15
1.883083554452335e-15
1.289955500536991e-15
9.748782353146325e-16
7.920567891848437e-16
6.665489901273507e-16
5.639256283759578e-16
4.712283424172613e-16
3.856318792710795e-16
3.0815171266421996e-16
2.4048711523685407e-16
1.8369370348042676e-16
1.3784027535330512e-16
1.0213337645674418e-16
7.521299299271128e-17
5.546227454838597e-17
4.1258760306362766e-17
3.114360259754624e-17
2.391186461724e-17
1.8639498789309922e-17
1.4666510018242778e-17
1.1554766174713543e-17
9.03550127188287e-18
6.957428233789476e-18
5.242447561412491e-18
3.852578962321527e-18
2.769058927862594e-18
1.98258598517656e-18
1.4925290569485571e-18
1.3125851425982195e-18
1.4807694159608747e-18
2.0723790090073352e-18
3.2150670945761097e-18
5.104638215660234e-18
8.017990693605198e-18
1.2315614602721847e-17
1.8420863396447812e-17
2.6758627349984907e-17
3.7635024660018794e-17
5.104631912956866e-17
6.642425937890688e-17
8.236186600029389e-17
9.642516004826535e-17
1.052526923553211e-16
1.0529392775526913e-16
9.477160297952315e-17
7.782654563186743e-17
7.24020396310872e-17
1.243748710401186e-16
3.319166395710058e-16
8.863062654862909e-16
2.138727607484054e-15
4.707413876564732e-15
9.646492291911288e-15
1.8708041629377608e-14
3.474376656895335e-14
6.231468567107362e-14
1.0860970313991498e-13
1.848212918140464e-13
3.081937723867593e-13
5.050512760669976e-13
8.15229882179387e-13
1.2984759101361175e-12
2.0435105662532746e-12
3.1805583562829253e-12
4.8981189930156984e-12
7.464517467697805e-12
1.1254149505508815e-11
1.6777206758517072e-11
2.470996076401205e-11
3.5920587311470866e-11
5.148365415556639e-11
7.267606345618914e-11
1.0095040640823208e-10
1.378905178625884e-10
1.8516943758333728e-10
2.445489503709636e-10
3.1797173518635336e-10
4.077812126076636e-10
5.170339701577909e-10
6.497340416883971e-10
8.106744824080922e-10
1.0046464065654098e-09
1.235625750117958e-09
1.5092734240148272e-09
1.8485610115964814e-09
2.3454041614352904e-09
3.2947268711765968e-09
5.496159833338317e-09
1.0867769132435374e-08
2.3600319008795956e-08
5.219120543983372e-08
1.1282880685426672e-07
2.347305249629713e-07
4.6812605767947023e-07
8.955397268746529e-07
1.6467383527337627e-06
2.9170214506099737e-06
4.9873012670537876e-06
8.242614373716435e-06
1.3183501349864742e-05
2.0422582520274698e-05
3.0657489551226496e-05
4.461215460005073e-05
6.294228958794197e-05
8.610811891611469e-05
0.00011422740579224763
0.0001469325322317001
0.0001832636735994019
0.00022163234349520999
0.000259882979054869
0.00029546415044420825
0.0003256978161930287
0.0003481101696196408
0.0003607680653474603
0.00036255728052370984
0.0003533465435938849
0.0003340034407647147
0.00030625950658027206
0.0002724536022505631
0.00023520648850008601
0.00019708936846521928
0.00016034362728079178
0.00012669112972666643
9.725047134033103e-05
7.255148941761146e-05
5.262361495511288e-05
3.71259235876142e-05
2.5487662227132413e-05
1.7035069247318192e-05
1.1090091745565979e-05
7.036091961195619e-06
4.352846724130241e-06
2.6273329500364416e-06
1.5481996883978226e-06
8.912454879042601e-07
5.015741814424532e-07
2.7616742997824085e-07
1.4889032019927461e-07
7.866859649817722e-08
4.0774552708075335e-08
2.075243063890816e-08
1.0382564256655638e-08
5.111877092854128e-09
2.4796695290419856e-09
1.1864410665149885e-09
5.60571997242929e-10
2.61832811034335e-10
1.2102309196290758e-10
5.540734811682326e-11
2.514627689080963e-11
1.1320746113668092e-11
5.0580157522672155e-12
2.2434331133038786e-12
9.879476452708678e-13
4.3200841188658114e-13
1.8762273019699542e-13
8.095797911580421e-14
3.471425043807409e-14
1.4788165727363157e-14
6.253063693753904e-15
2.6215688010355404e-15
1.089343541979263e-15
4.492590291501953e-16
1.843530430529992e-16
7.529761638564188e-17
3.050066066800015e-17
1.2265426572242903e-17
4.962667473910608e-18
1.987986835458903e-18
7.095490337741367e-19
2.2623147830449045e-19
1.3925518400313907e-19
1.3046383985193968e-19
7.303900107923276e-20
7.481338101926183e-20
1.3013191331400477e-19
2.605105662156813e-19
4.611422648708054e-19
1.0591641436181049e-18
2.6018020280740517e-18
6.138912959363159e-18
1.4226840183774196e-17
3.297109396645854e-17
7.628225087172452e-17
1.7552406281519978e-16
4.012608478828608e-16
9.110060422859058e-16
2.0524949244909933e-15
4.5844828055593065e-15
1.0142065570695257e-14
2.220090079873565e-14
4.803894113463624e-14
1.0264938026960969e-13
2.163789694184515e-13
4.494916553130847e-13
9.192331729371987e-13
1.8487384764946855e-12
3.652741349510008e-12
7.082786450988468e-12
1.346416645524976e-11
2.5066433722463873e-11
4.5655045458708934e-11
8.126607419911216e-11
1.4121776313374367e-10
2.3930882703039413e-10
3.9504450928243343e-10
6.345836540205998e-10
9.909498093432618e-10
1.5029708528066797e-09
2.2124976711816036e-09
3.1597507423400294e-09
4.377062072022737e-09
5.881541227186808e-09
7.666972081664186e-09
9.694561185518212e-09
1.1881837950630779e-08
1.4090664502331954e-08
1.6120214135217074e-08
1.7717689988748518e-08
1.8623123908554353e-08
1.865679827415239e-08
1.783394103756629e-08
1.645785783496829e-08
1.5120415677796333e-08
1.4554413383704516e-08
1.5348747021072124e-08
1.763485995283154e-08
2.0929448186092886e-08
2.4315517558127035e-08
2.703969221753382e-08
2.944087220427268e-08
3.399913212005385e-08
4.629788126434096e-08
7.585411445524326e-08
1.3701975939976728e-07
2.503471888345948e-07
4.447969423053359e-07
7.608707799155754e-07
1.2542142903142464e-06
1.998587163546845e-06
3.0865429866383976e-06
4.625907175987761e-06
6.730383918562616e-06
9.503492000930755e-06
1.3016534475203355e-05
1.7283260952806615e-05
2.2235852755731524e-05
2.770821509262101e-05
3.343262248086899e-05
3.90540842795683e-05
4.4163417527509546e-05
4.834559790633693e-05
5.12356862415958e-05
5.2571841644584086e-05
5.2234659782363145e-05
5.0264608684301616e-05
4.685407154774399e-05
4.231612363953875e-05
3.7037080502025555e-05
3.142274882679948e-05
2.5848578146722554e-05
2.06217727630703e-05
1.595976493975013e-05
1.1985449011744348e-05
8.736289217441851e-06
6.1824867484599485e-06
4.248958102384327e-06
2.8366476068184322e-06
1.8401535951906456e-06
1.1602531493995462e-06
7.112610432606275e-07
4.240484598825422e-07
2.4595298066356795e-07
1.3883183187325214e-07
7.62940506877607e-08
4.083568823415462e-08
2.129823907802687e-08
1.0830280224038125e-08
5.372838609608063e-09
2.6023195173527723e-09
1.2316835006121694e-09
5.702955206656664e-10
2.5869475417014175e-10
1.1519461267406308e-10
5.050596805663083e-11
2.190850306885415e-11
9.476966460478004e-12
4.139656150828913e-12
1.85942286507242e-12
8.776375490165233e-13
4.4312788239307853e-13
2.4040330046312027e-13
1.3844429742637441e-13
8.282002691403511e-14
5.039527628140298e-14
3.074324487335454e-14
1.8682455357645703e-14
1.1327043838051526e-14
6.915723906505022e-15
4.321652623422834e-15
2.8188705688191575e-15
1.948820528258603e-15
1.4320053517190622e-15
1.1057388363939946e-15
8.803769063993599e-16
7.096008533990067e-16
5.7121402121833e-16
4.554214040406829e-16
3.5812789503190646e-16
2.77401471726104e-16
2.1180888507777366e-16
1.5978251568774155e-16
1.195035660444654e-16
8.900466340493649e-17
6.633179814967302e-17
4.968780824033121e-17
3.75273515388642e-17
2.8599587244599114e-17
2.194766453516407e-17
1.6878683506032907e-17
1.2917565921427572e-17
9.75576501502426e-18
7.202601665004993e-18
5.1440982183159494e-18
3.511770903605783e-18
2.261938922536591e-18
1.364693607065086e-18
8.00806706648146e-19
5.646234443806699e-19
6.713305733960306e-19
1.1675982740151062e-18
2.1448803228023756e-18
3.753904409585605e-18
6.2165375929850966e-18
9.827238212242433e-18
1.4931533628089736e-17
2.186526294445434e-17
3.08385185270706e-17
4.17557069808462e-17
5.398138895502512e-17
6.609382674192098e-17
7.571822049209644e-17
7.960593600294392e-17
7.423827076260828e-17
5.741096378761363e-17
3.154841680916636e-17
9.985180306355302e-18
2.825646097531799e-17
1.6372502495328736e-16
5.688587502343711e-16
1.5264506609949678e-15
3.5394350608681283e-15
7.474265780052859e-15
1.4785943268288045e-14
2.7866029978559575e-14
5.057438495720189e-14
8.904377890657973e-14
1.528879158111089e-13
2.5700239934332854e-13
4.2422964628654263e-13
6.892658984304197e-13
1.1043198512673843e-12
1.7471766354505533e-12
2.732449035619583e-12
4.226853890266556e-12
6.4692438798785e-12
9.795725359550352e-12
1.4669357069242526e-11
2.1712548846665788e-11
3.173840956529635e-11
4.577527650289376e-11
6.507727832970175e-11
9.11142304204267e-11
1.2553756785361085e-10
1.7012525337289918e-10
2.2671412699558955e-10
2.9712353626894767e-10
3.830429826332071e-10
4.85780961502304e-10
6.056516423766362e-10
7.406708507153249e-10
8.843415823796356e-10
1.0230838443994785e-09
1.1361519830065922e-09
1.2060750864139765e-09
1.257801357431582e-09
1.4625949646561113e-09
2.3718143846870067e-09
5.390120800117622e-09
1.3661853301942385e-08
3.3631926118540325e-08
7.765375498134218e-08
1.6814212866669522e-07
3.4388026622361955e-07
6.691278292151586e-07
1.2460396643660164e-06
2.2304550990474092e-06
3.850208204843387e-06
6.423652158943401e-06
1.0374154593243893e-05
1.623423747548707e-05
2.4631458252431368e-05
3.6247979304639464e-05
5.174801792951476e-05
7.167264289228382e-05
9.630953417164343e-05
0.00012555506610084318
0.00015879496805447723
0.00019483470996810873
0.00023190871739857315
0.0002677869962580828
0.0002999795798891916
0.0003260169673775759
0.00034376406241054796
0.0003517122254261652
0.0003491935560332679
0.00033647473685864557
0.0003147119130750684
0.00028577695220141397
0.0002519913380262962
0.00021582021889278715
0.00017958217938368476
0.00014522059561770421
0.0001141639436903429
8.728100708681572e-05
6.491825660652444e-05
4.699462691846806e-05
3.312479300525229e-05
2.2744814979419976e-05
1.5221169613552918e-05
9.932853690281576e-06
6.324076903086845e-06
3.930681244463574e-06
2.3864469053693165e-06
1.4162224907594529e-06
8.220684015041139e-07
4.6709184816807703e-07
2.599902222205192e-07
1.4188512294462514e-07
7.598514394057104e-08
3.997056971783048e-08
2.0672738975389447e-08
1.0523061370284426e-08
5.277413498853734e-09
2.610262686943188e-09
1.2745954341093764e-09
6.150481771989493e-10
2.9355645521846413e-10
1.3870168619567544e-10
6.492285300283663e-11
3.012349396640009e-11
1.3861596202738625e-11
6.328096906010801e-12
2.8667785666909974e-12
1.2890413740211767e-12
5.754162179090279e-13
2.5504832144434324e-13
1.1225831560794843e-13
4.9056774849583784e-14
2.1276219681239342e-14
9.154584878597207e-15
3.907839841658591e-15
1.6559862979897603e-15
6.971805676826191e-16
2.9162609623588e-16
1.211209305141795e-16
4.9964959077413776e-17
2.0462443711401838e-17
8.232199241270705e-18
3.2162387618192058e-18
1.2909048624067922e-18
5.921007022687903e-19
2.512236719786884e-19
4.276597580688074e-20
1.610887060487099e-20
1.5937485947961756e-19
1.0221362425804019e-19
8.992190769072006e-20
3.2329473032298547e-19
9.176977483469103e-19
2.146693231466289e-18
5.0272341773776226e-18
1.2099247564473952e-17
2.909353527086634e-17
6.930703160454556e-17
1.639710798892982e-16
3.8555748733627597e-16
8.999747520146417e-16
2.0828548583113488e-15
4.774744111798732e-15
1.0831348435521095e-14
2.42889862032165e-14
5.3786326380628734e-14
1.1749188505843884e-13
2.5290224178568464e-13
5.358449024952611e-13
1.1163438903430697e-12
2.284328580503539e-12
4.586147919136088e-12
9.02382959474318e-12
1.738231234503537e-11
3.27426239241525e-11
6.024464886643085e-11
1.0815025062890146e-10
1.892099781040374e-10
3.2223780334600636e-10
5.336412877011092e-10
8.584572148509786e-10
1.3402614587924315e-09
2.029247198934778e-09
2.9778830047496675e-09
4.233881723024362e-09
5.830616899672519e-09
7.775440239262409e-09
1.0036584564343634e-08
1.2529944493422752e-08
1.5108866536492153e-08
1.7563566954599036e-08
1.9640457058890557e-08
2.1091286045270075e-08
2.1752296164753917e-08
2.163292638756974e-08
2.0969686063997512e-08
2.01913774395509e-08
1.9765885442219907e-08
1.996033023888376e-08
2.0621908272068317e-08
2.1129785759629304e-08
2.0636347304338503e-08
1.8605221608167004e-08
1.551621382808341e-08
1.3531815047191515e-08
1.6978020058793475e-08
3.268607842692158e-08
7.048834224896433e-08
1.443269211964538e-07
2.7440019849016277e-07
4.904927356399672e-07
8.361495585637709e-07
1.3727716366617325e-06
2.1821612316905755e-06
3.365682301362564e-06
5.038184999359393e-06
7.315343407235857e-06
1.0294196015952855e-05
1.402843842539232e-05
1.8502124932765152e-05
2.360732966553163e-05
2.9132252856812743e-05
3.476555439478339e-05
4.0120065288920546e-05
4.477481770231946e-05
4.8329562164541234e-05
5.0462028629044006e-05
5.0976479362588755e-05
4.983333943289232e-05
4.71536880112715e-05
4.319805297354543e-05
3.832463722859246e-05
3.293622141967975e-05
2.7426516016699444e-05
2.2135528151722298e-05
1.7320239307362487e-05
1.3142728086153598e-05
9.674035034861206e-06
6.909438150360364e-06
4.789746324741612e-06
3.223576111436538e-06
2.1068766677570254e-06
1.3376287011789208e-06
8.251759481270067e-07
4.947565122520774e-07
2.8839699854875287e-07
1.63480486998143e-07
9.014479717560749e-08
4.836603229854765e-08
2.525759536444897e-08
1.2841665643427364e-08
6.3584444500717165e-09
3.0668691609291564e-09
1.4413144765176324e-09
6.601454733696993e-10
2.9475117308885064e-10
1.283571827892943e-10
5.4580213359411056e-11
2.2725891621887088e-11
9.326062969929541e-12
3.824422605490686e-12
1.608265512658634e-12
7.210987582221544e-13
3.584066111264843e-13
1.998709794210515e-13
1.2193883274638534e-13
7.809711446708872e-14
5.079653637283455e-14
3.295649113445755e-14
2.1208775952392602e-14
1.3575725737363668e-14
8.71706288247885e-15
5.682752522273885e-15
3.809004164870346e-15
2.64943057320273e-15
1.917136589063049e-15
1.4359966595731658e-15
1.102506651930979e-15
8.581668671400982e-16
6.708755277182056e-16
5.231858223194773e-16
4.053374940519612e-16
3.113707895509492e-16
2.3710540110905167e-16
1.7918128083544376e-16
1.3466551378490078e-16
1.0093488777188121e-16
7.56722015663583e-17
5.689164814774811e-17
4.295425005493318e-17
3.2560515822518986e-17
2.472133320134799e-17
1.871401100588524e-17
1.403148302590997e-17
1.0331405061280064e-17
7.38986561280065e-18
5.062561903227805e-18
3.2548158634374554e-18
1.9006651277345606e-18
9.503936949380836e-19
3.6531037120753756e-19
1.184377431921531e-19
2.0002694940691935e-19
6.272010378536396e-19
1.4570293270704823e-18
2.801324437001152e-18
4.8390137147248035e-18
7.818210548824406e-18
1.20360861981295e-17
1.778221825281298e-17
2.5232826675103483e-17
3.4291866466333007e-17
4.43924483026628e-17
5.429979177339434e-17
6.199604172459379e-17
6.478121469450133e-17
5.980345745747484e-17
4.535914074733026e-17
2.3523620638101543e-17
5.060212774465983e-18
1.821683275794636e-17
1.2410580783540103e-16
4.4306676890036005e-16
1.198985713765401e-15
2.792318514493372e-15
5.918015777672308e-15
1.1752375933451926e-14
2.224415921502606e-14
4.056175686345811e-14
7.177231486994964e-14
1.2386393689020051e-13
2.0927292779348715e-13
3.47149654380345e-13
5.666937965458479e-13
9.12014726292377e-13
1.449120897668146e-12
2.275795384936485e-12
3.5352321580851227e-12
5.434315235795406e-12
8.26720681334202e-12
1.2444324640219298e-11
1.852568863115226e-11
2.7255930788407217e-11
3.959609767539927e-11
5.674510454521383e-11
8.014192254923758e-11
1.114387480066119e-10
1.5243491467180367e-10
2.0495802808262661e-10
2.706655378738985e-10
3.5070568649778217e-10
4.4511210434973765e-10
5.51719947496926e-10
6.643440827177116e-10
7.701204290892124e-10
8.466350954133326e-10
8.613818813604371e-10
7.801838699372391e-10
5.988991581817491e-10
4.2589926263400555e-10
6.639452252301711e-10
2.3724467422485854e-09
7.938868432768198e-09
2.2256092481658857e-08
5.4694660943208356e-08
1.222732505834862e-07
2.54551668463787e-07
5.008561887739437e-07
9.404174788513393e-07
1.6957363547154028e-06
2.948849261246191e-06
4.95902792873518e-06
8.07881003591157e-06
1.2763321407265148e-05
1.9566097349843907e-05
2.9113795711995677e-05
4.205320388012943e-05
5.896750821461106e-05
8.026511155924599e-05
0.00010605265493753321
0.0001360125830309924
0.0001693120164500499
0.00020457108197791566
0.00023991316984218626
0.00027310650509523057
0.0003017879086564386
0.00032373982746813196
0.0003371759803202285
0.00034098423791969253
0.000334880448427155
0.0003194433538981499
0.0002960246472714404
0.00026655342872551564
0.00023327431185238176
0.00019846838197966425
0.00016420441210925415
0.00013215587999094547
0.0001035016108608409
7.890944180951248e-05
5.8587603015057376e-05
4.238013057968257e-05
2.9880978901952494e-05
2.0545226591018613e-05
1.3782566120941236e-05
9.025768131002898e-06
5.773223739210819e-06
3.609044339933939e-06
2.206381194979654e-06
1.320002559987201e-06
7.733636579738528e-07
4.440526692653389e-07
2.5007609844178635e-07
1.3824829452573428e-07
7.50890127579101e-08
4.01064976728486e-08
2.1085180008416504e-08
1.0921224655562219e-08
5.578309648328354e-09
2.812344822953871e-09
1.400718696214645e-09
6.897765816135631e-10
3.3610112609812937e-10
1.6215415417784658e-10
7.750576630244515e-11
3.671936620720378e-11
1.7249529735342146e-11
8.037331667131451e-12
3.7154131142965006e-12
1.7043297157957724e-12
7.759243859821461e-13
3.506175780462373e-13
1.5724434250928677e-13
6.9981921324328e-14
3.090458164188937e-14
1.3543104903905801e-14
5.8910397874447916e-15
2.5443074884755955e-15
1.091104787756047e-15
4.645024294840399e-16
1.962339393188186e-16
8.216497802228917e-17
3.4020532803644117e-17
1.3973890107348785e-17
5.786845321029136e-18
2.406848320328719e-18
9.183692451616634e-19
3.039138840935925e-19
1.6322279847781287e-19
3.496864375396788e-19
7.563861455979629e-20
1.1342345965657624e-20
1.5893842171921564e-19
3.697096674759246e-19
6.929691959987356e-19
1.648999792347529e-18
4.286597493965867e-18
1.075564213295717e-17
2.6406748557688454e-17
6.463215559952678e-17
1.5764143654232974e-16
3.8169827826321487e-16
9.161583386063957e-16
2.1783894532546768e-15
5.1263326664968124e-15
1.1926079268648378e-14
2.7398186138844114e-14
6.208686761071981e-14
1.386277299978481e-13
3.046408275805074e-13
6.581529662604656e-13
1.3962949666002916e-12
2.9056699737288226e-12
5.92428467896685e-12
1.1820629975386255e-11
2.305401437852744e-11
4.389666960198759e-11
8.150182303488936e-11
1.4737515256616347e-10
2.592268005105214e-10
4.430270399359017e-10
7.34858521088852e-10
1.181886934119252e-09
1.8415429551283615e-09
2.777936668001109e-09
4.054709846394115e-09
5.723998834012379e-09
7.811890275945946e-09
1.0301701383260018e-08
1.311777698301838e-08
1.6114523036011367e-08
1.9077864292799772e-08
2.1747642041864394e-08
2.386647368698021e-08
2.5250142093393082e-08
2.5857333999190156e-08
2.5820534526838572e-08
2.539953566956884e-08
2.484672845508907e-08
2.4226637376032937e-08
2.32861912933705e-08
2.1488198867301325e-08
1.827059287480568e-08
1.3488632452756052e-08
7.892253183925002e-09
3.4618359278265056e-09
3.520688409187453e-09
1.2742492580759351e-08
3.739000307169207e-08
8.624404202119734e-08
1.726269863651087e-07
3.1767696229840295e-07
5.546331212723516e-07
9.334201308800485e-07
1.5243412252560374e-06
2.4192787850210486e-06
3.7285751692311373e-06
5.5719056147866744e-06
8.06217229057012e-06
1.1282877973703608e-05
1.5261483469572104e-05
1.994348226362172e-05
2.5173599038041598e-05
3.069079855990153e-05
3.614208894593501e-05
4.111641990975379e-05
4.5195069279693836e-05
4.8010154486735236e-05
4.929985562141299e-05
4.8948748764648855e-05
4.7004597903514174e-05
4.366827726823379e-05
3.9259639050864673e-05
3.416731539955883e-05
2.8793254317661633e-05
2.3502681905615646e-05
1.858754186735305e-05
1.4247362697596384e-05
1.0587259564143425e-05
7.629494172677621e-06
5.3332889937170105e-06
3.6174530917524955e-06
2.381426257377587e-06
1.5219915238726532e-06
9.445796279281876e-07
5.694057488256813e-07
3.3347405580294454e-07
1.8978063210278735e-07
1.0497216430522084e-07
5.644137040573272e-08
2.950327408246897e-08
1.499373650634826e-08
7.407805104091667e-09
3.5572758905089825e-09
1.6596298221126017e-09
7.517367573554029e-10
3.3023634547416096e-10
1.404991660425897e-10
5.779785673605635e-11
2.296431570619253e-11
8.825571493498817e-12
3.3126891349282926e-12
1.2518967641883607e-12
5.100055839106606e-13
2.4590947638992723e-13
1.4528711784114268e-13
9.83068173829933e-14
6.973389167698095e-14
4.932514384575378e-14
3.420263062317373e-14
2.3234842238189635e-14
1.5564141867258717e-14
1.0379830493468832e-14
6.965707603404278e-15
4.750468681305007e-15
3.3158726622836386e-15
2.3757686280529274e-15
1.7444969091431117e-15
1.3063970822524409e-15
9.91430529586572e-16