# vtk DataFile Version 4.1 
COMMENT
ASCII
DATASET STRUCTURED_POINTS 
DIMENSIONS 300 300 1 
ORIGIN 0 0 0
SPACING 0.020943951023931952 0.020943951023931952 0 
POINT_DATA 90000
SCALARS U double 1
LOOKUP_TABLE default
6.426017091665456e-19
4.1088136306288553e-19
1.6526734609636645e-19
7.262251653154392e-20
1.640791050817131e-19
2.235511315578842e-19
1.444223127215484e-19
4.486539838419791e-19
3.160157687760398e-18
1.413637630846368e-17
4.770499932314393e-17
1.3275173512628253e-16
3.172108394196381e-16
6.667708861433137e-16
1.2613003912404928e-15
2.235309248202537e-15
4.041635753856827e-15
8.423264800670467e-15
2.1154722518263227e-14
5.857667600441702e-14
1.6155830482996083e-13
4.2374287495516207e-13
1.0488471465755198e-12
2.4723519141947044e-12
5.6332730655486546e-12
1.2594261604089975e-11
2.7940236949808674e-11
6.183700601276358e-11
1.3648070685314973e-10
2.992402686537392e-10
6.486564485095789e-10
1.3845386131120597e-09
2.9020553442456804e-09
5.963691788744874e-09
1.2004063170893316e-08
2.3651976718936854e-08
4.5590914943014314e-08
8.591811984299863e-08
1.5819138213246166e-07
2.8434905365593615e-07
4.986187993598222e-07
8.523518397415804e-07
1.4193919139114342e-06
2.3010951986049154e-06
3.6294952601569907e-06
5.566476048032585e-06
8.29639705752837e-06
1.2009713025099977e-05
1.6876066774861298e-05
2.3007323397172294e-05
3.041401229320025e-05
3.896220797811631e-05
4.834111534729331e-05
5.805328159007938e-05
6.743813148869683e-05
7.573454025878292e-05
8.217953264792169e-05
8.612945729160068e-05
8.718008031597394e-05
8.525669780599949e-05
8.064779355545312e-05
7.396709423472715e-05
6.604701154604902e-05
5.778616364589558e-05
4.998811190821368e-05
4.323191052755164e-05
3.780554845104958e-05
3.37138226605515e-05
3.0749576570185564e-05
2.8599694433563664e-05
2.6950658678540026e-05
2.556417965698303e-05
2.430794645839366e-05
2.314357065175347e-05
2.2086946544689673e-05
2.116166818146089e-05
2.0363508614040866e-05
1.964593156764442e-05
1.8927149166925418e-05
1.81118926692598e-05
1.7117744107289842e-05
1.589663757246084e-05
1.444566388500961e-05
1.2805755837524586e-05
1.1050583466989271e-05
9.27012298708395e-06
7.553714690544812e-06
5.976403360417585e-06
4.590637535093732e-06
3.4236539067186048e-06
2.479552847719793e-06
1.7443793350650221e-06
1.192428717947035e-06
7.923239114359089e-07
5.119383202450451e-07
3.217745378923149e-07
1.9682874789705427e-07
1.1722574248174144e-07
6.800884624223171e-08
3.8454679163726535e-08
2.1205214097958774e-08
1.141213514630272e-08
5.999597448571229e-09
3.084788784298194e-09
1.5536897285099843e-09
7.681915690948962e-10
3.739490567217255e-10
1.799395447744027e-10
8.604907010112696e-11
4.118407042624059e-11
1.990188055477711e-11
9.809384014902283e-12
4.9822386708387314e-12
2.629320611628988e-12
1.447627496166449e-12
8.303012830188607e-13
4.929948136261731e-13
3.002999603362183e-13
1.8590612383437887e-13
1.1601191147230944e-13
7.250963378882918e-14
4.517256579620635e-14
2.794428505845811e-14
1.710844758466118e-14
1.0334056826128867e-14
6.142428200167688e-15
3.5901636554484415e-15
2.0725607804324292e-15
1.1998687856805059e-15
7.197541460965192e-16
4.691858393224385e-16
3.4450163347752096e-16
2.822352620308504e-16
2.461345423040868e-16
2.1784179760549154e-16
1.9000622051203238e-16
1.612825132948565e-16
1.32930067724544e-16
1.0675691079370349e-16
8.410667415245553e-17
6.55572618880534e-17
5.102092653783403e-17
4.0001381881527455e-17
3.185027728841966e-17
2.5947640355071524e-17
2.179214290259738e-17
1.902167395769093e-17
1.7395910814550413e-17
1.6768245786719078e-17
1.706326870324085e-17
1.826501387150173e-17
2.041447676415151e-17
2.361370163188348e-17
2.8036963661639443e-17
3.395477197438329e-17
4.178068187906155e-17
5.215150806690558e-17
6.604633449785814e-17
8.493733003759946e-17
1.1094538145900908e-16
1.469470647148145e-16
1.9655019315182272e-16
2.638307707680719e-16
3.5271756037544995e-16
4.659405667845838e-16
6.035513199393287e-16
7.612055205011788e-16
9.287046995849947e-16
1.0897542165937146e-15
1.224532432429559e-15
1.3174779462984302e-15
1.373632369648857e-15
1.4477671357916118e-15
1.691043760857042e-15
2.4195182170595394e-15
4.2064727675163994e-15
7.995051459301754e-15
1.5217465470344925e-14
2.7890818243122674e-14
4.863733710640234e-14
8.055175575180993e-14
1.2682095187984655e-13
1.9001356427680405e-13
2.7104393320102884e-13
3.680497496633573e-13
4.759192820085161e-13
5.881112061558797e-13
7.038844727025186e-13
8.461792897643823e-13
1.0979985165653771e-12
1.6675170602816864e-12
2.9925753901550134e-12
5.890418644074678e-12
1.1743340400393e-11
2.2678823737872098e-11
4.164965697962205e-11
7.225386025520392e-11
1.1810215282614497e-10
1.8167755143884635e-10
2.632595843363784e-10
3.622777804057773e-10
4.876876934271917e-10
6.928186387865767e-10
1.167053323053056e-09
2.4464627246058475e-09
5.853912019618421e-09
1.4351532299834759e-08
3.408679844088986e-08
7.703149205315376e-08
1.6522946973956592e-07
3.3724158684430296e-07
6.573354322100684e-07
1.2277212988721484e-06
2.2035830078802945e-06
3.8097146547458813e-06
6.3562455600348735e-06
1.0249340359860609e-05
1.5991208720634986e-05
2.4162764068919646e-05
3.538250539668871e-05
5.0237347289799586e-05
6.918564518522603e-05
9.243946622404772e-05
0.00011984132794054346
0.00015075832640993667
0.00018402125393313364
0.00021793533005589277
0.00025038076419559024
0.00027900561017596843
0.0003014928084020609
0.0003158627876380149
0.00032075852787124637
0.0003156568562763316
0.0003009605039312996
0.0002779485704600744
0.0002485929810624419
0.00021527726241653142
0.00018047361209827073
0.00014643963914999476
0.00011498656252082853
8.734977697224557e-05
6.416719856035735e-05
4.55479247648502e-05
3.119898729524348e-05
2.0573662197756367e-05
1.3009897956506025e-05
7.83846491326276e-06
4.453058420783765e-06
2.3450599992052425e-06
1.111847905528372e-06
4.491967410607346e-07
1.3661294735273933e-07
2.1257448053917178e-08
3.059920096797461e-09
2.1667345107255817e-08
4.511653832996036e-08
6.015022200328796e-08
6.434020145283306e-08
6.025332592686631e-08
5.170946127484437e-08
4.1869420350917754e-08
3.2643868993754296e-08
2.484355527080109e-08
1.859114580647194e-08
1.3702069871453835e-08
9.922442279930524e-09
7.030236714550396e-09
4.852990143430005e-09
3.2536651051355005e-09
2.1150293296986945e-09
1.3325373677145747e-09
8.142647614418342e-10
4.832889248415601e-10
2.791492221570988e-10
1.5724696977516887e-10
8.65725659437445e-11
4.667762635146635e-11
2.4691342079858075e-11
1.2833401352407338e-11
6.561886895239056e-12
3.303879715548078e-12
1.6393151343175419e-12
8.020904529005047e-13
3.872235258364342e-13
1.8455741221619175e-13
8.689652651751554e-14
4.04452651871242e-14
1.862255320779085e-14
8.488478931168746e-15
3.832954305489734e-15
1.7157026621536597e-15
7.61979344540562e-16
3.3624746336683626e-16
1.4769633372362398e-16
6.462267739774053e-17
2.807000701738023e-17
1.1969168954826835e-17
4.929235717125658e-18
2.008605783118441e-18
9.708724310422918e-19
1.7291578397319475e-18
7.172863236018084e-19
1.5029168054060592e-19
1.0815599852319626e-20
1.3245877774070023e-19
2.5995562728742147e-19
3.495574214421796e-19
6.97706543042399e-19
2.1820770447985077e-18
7.311877346862922e-18
2.2098768283904515e-17
5.771876131376565e-17
1.2996558434125783e-16
2.5296358327257242e-16
4.247962540915082e-16
6.209449248513325e-16
8.744553065674812e-16
1.6655369822771912e-15
5.09671617484708e-15
1.7693889121974953e-14
5.616174586052949e-14
1.5835163287645464e-13
4.045444461356243e-13
9.632105329949474e-13
2.2003251055421345e-12
4.950411622452788e-12
1.1172972075721958e-11
2.5467343491671214e-11
5.84017985261632e-11
1.335445646849485e-10
3.0187675360321787e-10
6.706454713268651e-10
1.4598381209197385e-09
3.109982664906362e-09
6.481980192708552e-09
1.321528269285915e-08
2.634621349275072e-08
5.1332244044870635e-08
9.767372475406973e-08
1.8135562969106997e-07
3.2831872553784046e-07
5.790679695606033e-07
9.942821634711137e-07
1.6608560775284572e-06
2.6971745801935228e-06
4.255655887109288e-06
6.519892821885062e-06
9.693381997246533e-06
1.397726497228372e-05
1.9536088583294915e-05
2.645348399473867e-05
3.468359807318018e-05
4.4008244047699905e-05
5.401268314206532e-05
6.409306698075927e-05
7.350454389396138e-05
8.145058008541284e-05
8.720251740545637e-05
9.022686838784269e-05
9.02904970068326e-05
8.751445322246302e-05
8.235748611803765e-05
7.552835235076852e-05
6.7846651153531e-05
6.008785452117669e-05
5.285321749467273e-05
4.649689849281517e-05
4.11236290318684e-05
3.664765822200805e-05
3.2885832643939434e-05
2.9650730641499985e-05
2.681524703755919e-05
2.4334472786768263e-05
2.2227665900928615e-05
2.0536077860309564e-05
1.9277463049523694e-05
1.8414989602134894e-05
1.7849759184206567e-05
1.7436338042745834e-05
1.7013214150550277e-05
1.6436858552917233e-05
1.5609095960980155e-05
1.449139596021624e-05
1.3104559844068282e-05
1.1516417626570475e-05
9.822577800656484e-06
8.125782325348532e-06
6.5184046349875835e-06
5.07078333064713e-06
3.826115866909784e-06
2.8010682712188652e-06
1.990346275201459e-06
1.3732294750583982e-06
9.203332485076577e-07
5.99402148948615e-07
3.795354366991537e-07
2.3374661637663348e-07
1.4009046473660735e-07
8.174740928810571e-08
4.6473502843078657e-08
2.575815610372138e-08
1.3931099019473042e-08
7.3604460385266535e-09
3.804568667793072e-09
1.9276533633039485e-09
9.598259236768881e-10
4.712787768821835e-10
2.2920371828028264e-10
1.1104277027332822e-10
5.39638760716614e-11
2.651834806944815e-11
1.3289688760900255e-11
6.8461623202737134e-12
3.646856606417661e-12
2.0140802489071058e-12
1.1517906800343012e-12
6.787928551233785e-13
4.0935125655040034e-13
2.506121311796986e-13
1.5456650249156912e-13
9.537686463688442e-14
5.852598906693964e-14
3.5515042953464716e-14
2.119481466673577e-14
1.2366421470121913e-14
7.010158416541682e-15
3.8384172970988175e-15
2.0256979371802724e-15
1.0414813368441484e-15
5.456231316041685e-16
3.2244817300366153e-16
2.386729460329249e-16
2.1579991497779346e-16
2.1131287154057245e-16
2.0544655576372634e-16
1.9179826215174192e-16
1.708401290151085e-16
1.4572515268634516e-16
1.1987703052884427e-16
9.587354418563908e-17
7.516453037912021e-17
5.823745048207717e-17
4.49468701619889e-17
3.4834362543998255e-17
2.735972375280567e-17
2.2030168270690066e-17
1.8449520693548703e-17
1.6320225715820652e-17
1.542648368996839e-17
1.561597598841461e-17
1.678718409864705e-17
1.888298801238652e-17
2.189007240840134e-17
2.5846598930819907e-17
3.0865240498382004e-17
3.718210288851578e-17
4.524147123141582e-17
5.58194941097399e-17
7.017559194263279e-17
9.019864258090759e-17
1.1848789163671935e-16
1.5828083743242494e-16
2.1312040939647642e-16
2.861540673140381e-16
3.7899451466867625e-16
4.901653696056371e-16
6.133273236705784e-16
7.357536716293781e-16
8.379197214511718e-16
8.956031065002553e-16
8.8655765278727e-16
8.045749825869383e-16
6.844495558454281e-16
6.417198682414996e-16
9.305270732488967e-16
2.0206275830582827e-15
4.689250264117496e-15
1.0113552175048304e-14
1.99334764731728e-14
3.6232527015874254e-14
6.135802612945816e-14
9.748181933301588e-14
1.4580765882077117e-13
2.0540186764862273e-13
2.71825485592933e-13
3.3617772101133825e-13
3.8594909025888005e-13
4.103532057693031e-13
4.146019652529998e-13
4.497057920611444e-13
6.66076173267598e-13
1.3987596753004942e-12
3.286290967718746e-12
7.408725938945733e-12
1.5396686924657385e-11
2.940685362788277e-11
5.178497006459287e-11
8.418071129268137e-11
1.2594945570279229e-10
1.7213881666647963e-10
2.127678297510343e-10
2.385125774971761e-10
2.6511780031078135e-10
4.0268299266057415e-10
1.0203906713256927e-09
3.0970928275318917e-09
8.90811744646053e-09
2.3280961484787127e-08
5.5753320671108716e-08
1.2407103192121808e-07
2.5953895558845483e-07
5.147315681551364e-07
9.739085044623938e-07
1.7660784411599145e-06
3.079937390125121e-06
5.178844800717072e-06
8.412655126121275e-06
1.3221796846612765e-05
2.0127861621512594e-05
2.9704671811104213e-05
4.2524953086967605e-05
5.908087415455954e-05
7.968200349430353e-05
0.00010434122406612944
0.0001326665768765466
0.0001637828323818675
0.00019630837768822262
0.00022840865444176138
0.00025793603899899366
0.0002826489100222742
0.00030048315988052434
0.0003098327126673939
0.0003097871001283808
0.0003002775903549812
0.00028209931471435767
0.0002568019919937789
0.0002264697823027816
0.00019343393367744755
0.0001599739559465712
0.00012806120568826403
9.918436550997816e-05
7.427429173528297e-05
5.3722744156509056e-05
3.7471703287743046e-05
2.514104602438416e-05
1.616283757765989e-05
9.898157960336638e-06
5.7234064394760176e-06
3.0835683264908493e-06
1.5173217725036183e-06
6.621854242884802e-07
2.478001492870768e-07
8.340878059514539e-08
4.3201453930233016e-08
5.1431450450287126e-08
6.834020710013247e-08
7.767895557604354e-08
7.652509512752602e-08
6.7855943192793e-08
5.5919735411269177e-08
4.3987207263791694e-08
3.376462309090404e-08
2.569416088891024e-08
1.9525213712804e-08
1.4796037745686932e-08
1.1101915869180242e-08
8.176200597063252e-09
5.866602046872657e-09
4.0812818329037475e-09
2.746520617832905e-09
1.7874211386094762e-09
1.1262311810194482e-09
6.884546377997343e-10
4.0933053855145475e-10
2.3735729088669204e-10
1.345878956171538e-10
7.480251191032317e-11
4.0831844755470394e-11
2.1924614084664758e-11
1.15933841923914e-11
6.041933066115988e-12
3.104998916151756e-12
1.5741177299975725e-12
7.875071672861631e-13
3.889365140306997e-13
1.8971851255585607e-13
9.145125980879657e-14
4.359127243911708e-14
2.0561175607279355e-14
9.604231023854638e-15
4.446285659379628e-15
2.042003595883478e-15
9.313072952653072e-16
4.2216835460016296e-16
1.9020881816884576e-16
8.50350311907795e-17
3.762325947743077e-17
1.6524446352483505e-17
7.38338362462883e-18
3.508085863514195e-18
5.1295506540297705e-18
2.080056066363408e-18
7.136756645012481e-19
3.2975830867257246e-19
3.599123464119721e-19
4.243349857333355e-19
4.604605671553181e-19
6.375989095761585e-19
1.4208551220310987e-18
4.094536885362629e-18
1.142282492943908e-17
2.7920981881369196e-17
5.899868522249648e-17
1.0671625565656534e-16
1.5930489069463825e-16
1.8046439651482016e-16
1.3609783463632943e-16
1.651392341143099e-16
1.1121550137930651e-15
5.762015606353957e-15
2.1185869277820044e-14
6.268148462970693e-14
1.6056928860220757e-13
3.7493726106727456e-13
8.357130033898804e-13
1.8562056595110137e-12
4.23451021798647e-12
9.98938354624369e-12
2.4037761009461054e-11
5.784560505532508e-11
1.371542640200672e-10
3.180342956278284e-10
7.196575487471799e-10
1.5897149094944485e-09
3.4313259439212585e-09
7.241079596249551e-09
1.4939079986074005e-08
3.0115013904901996e-08
5.926725187173577e-08
1.1376526127760001e-07
2.1279677019070323e-07
3.8753018379950096e-07
6.865715243267107e-07
1.1824566019120822e-06
1.978342726697146e-06
3.2132597781440026e-06
5.063372546865779e-06
7.735978256588921e-06
1.1452853358360627e-05
1.6420575584709796e-05
2.278795529553342e-05
3.0594690923527754e-05
3.972014743518615e-05
4.98453482890406e-05
6.0442980339054084e-05
7.080765583063276e-05
8.01310410247509e-05
8.761469562906717e-05
9.26005754774122e-05
9.468960563697898e-05
9.381695654439066e-05
9.026103035369344e-05
8.458042966738585e-05
7.749420352006171e-05
6.973802070252237e-05
6.193585431055304e-05
5.4520248469089365e-05
4.771658501528791e-05
4.158481522842076e-05
3.609430829361993e-05
3.120016139080491e-05
2.689420820208857e-05
2.321773752803635e-05
2.0239192405001833e-05
1.8012425598091965e-05
1.6535584679470424e-05
1.5727198168438236e-05
1.5427358093272414e-05
1.5422149429205025e-05
1.5482214979274188e-05
1.5403409482047182e-05
1.5038825543891754e-05
1.4315644234533006e-05
1.3235351025692098e-05
1.1860192998319239e-05
1.0291348451666173e-05
8.644908857544188e-06
7.030799936694738e-06
5.537869283598921e-06
4.226257234696005e-06
3.1264036613186414e-06
2.2429332491674952e-06
1.5612608993773205e-06
1.0549345833449184e-06
6.922576481607189e-07
4.4137167249883614e-07
2.735543038614888e-07
1.6489423398988957e-07
9.672366708646272e-08
5.524635390660428e-08
3.0750408932535945e-08
1.6695068784483316e-08
8.85208778724309e-09
4.591107654637651e-09
2.334115640233639e-09
1.1664818029478248e-09
5.751524180116809e-10
2.811222824620858e-10
1.3701913647938498e-10
6.706496807238604e-11
3.322341764593688e-11
1.6791417740736175e-11
8.719514982398018e-12
4.6754070186407955e-12
2.5935915914096617e-12
1.4862215346924218e-12
8.757643616826633e-13
5.271373043791944e-13
3.2164432970680743e-13
1.9741755220611963e-13
1.20992450757378e-13
7.353178205131433e-14
4.40105924442346e-14
2.5752657992043633e-14
1.4607154448840425e-14
7.946647468064395e-15
4.0905228072255915e-15
1.9592226724629423e-15
8.603759086493637e-16
3.537523855346138e-16
1.6465283443282625e-16
1.2740631388490922e-16
1.4770124069128905e-16
1.7689977940483436e-16
1.9428460872809028e-16
1.948673037457761e-16
1.8130066695871053e-16
1.5887567413107903e-16
1.3278006144396662e-16
1.0690800274238682e-16
8.362145811921272e-17
6.399722645722524e-17
4.823869177373085e-17
3.606555271676709e-17
2.7000387546205672e-17
2.054017804283134e-17
1.623639306817684e-17
1.3717535792443543e-17
1.268356373594608e-17
1.2891338136635183e-17
1.414052132131394e-17
1.6263434918656576e-17
1.9121126805924816e-17
2.2610217913922786e-17
2.6688759506729707e-17
3.143151860030584e-17
3.712307532117197e-17
4.438874897989447e-17
5.4347726408929416e-17
6.875059224194863e-17
9.003771759196637e-17
1.2123130070390464e-16
1.6556084558733302e-16
2.2573078939092343e-16
3.0278305258552377e-16
3.946005134264323e-16
4.942536908430131e-16
5.886256360152851e-16
6.580718856092126e-16
6.782933931791659e-16
6.261199978391942e-16
4.914880662968283e-16
2.9844373756789695e-16
1.3826890565243084e-16
2.1733856292444093e-16
9.202818684911845e-16
2.884269822486727e-15
7.071332741171386e-15
1.481113299916674e-14
2.7766135206555203e-14
4.774682605343308e-14
7.628432266573904e-14
1.1386926235353978e-13
1.5882339857650003e-13
2.0594087470694848e-13
2.45403843702824e-13
2.631478101677617e-13
2.4492532561648505e-13
1.8781341915185058e-13
1.246256921534107e-13
1.679367543984397e-13
5.796439666070704e-13
1.8662586889573107e-12
4.8847737673035284e-12
1.0912896662700899e-11
2.1585487374413493e-11
3.8529122261590795e-11
6.246696921670707e-11
9.160536030033353e-11
1.194664387049634e-10
1.3344831967375986e-10
1.1812400680635794e-10
7.308997961079089e-11
6.632445842497107e-11
3.637272998674059e-10
1.707752471743585e-09
5.866768557719487e-09
1.6644297792847312e-08
4.1621464611545885e-08
9.4996407473751e-08
2.0195794832296584e-07
4.050479947878126e-07
7.728713414427804e-07
1.4112337691011257e-06
2.47626165969022e-06
4.1882358836548655e-06
6.84377649680783e-06
1.0822760984304907e-05
1.6585203692999406e-05
2.465267573404335e-05
3.556922753459784e-05
4.9838722281552974e-05
6.783934478009174e-05
8.972172926150168e-05
0.00011530389774202063
0.00014398250437864924
0.00017468364117183564
0.00020587549942188753
0.0002356580284939444
0.000261931450512075
0.00028262818894886306
0.0002959754789031853
0.00030074365319123837
0.0002964322640580712
0.00028335497557993984
0.00026260336228845345
0.00023589484491466092
0.00020533436029660155
0.00017313638760797217
0.00014135921936675347
0.00011169606674484082
8.535064819851636e-05
6.300380084574109e-05
4.485842779071308e-05
3.07374111942507e-05
2.0204983395042e-05
1.268561643152893e-05
7.562884864827335e-06
4.250411669963235e-06
2.234982650670666e-06
1.0966986353822402e-06
5.126316668574914e-07
2.4988829966606133e-07
1.525646110440902e-07
1.257675921259752e-07
1.1904008029626822e-07
1.110360799044475e-07
9.684721990713894e-08
7.878556906407996e-08
6.071371492108573e-08
4.536755200770596e-08
3.373212123658808e-08
2.5480333084021834e-08
1.970049334777634e-08
1.547064584476714e-08
1.2139634788559693e-08
9.363977841503542e-09
7.017579894699006e-09
5.076908399747809e-09
3.5375412915805105e-09
2.3751439660599715e-09
1.5398737887252085e-09
9.669693670029754e-10
5.901797485344335e-10
3.513471775641858e-10
2.0469384886026517e-10
1.1703804511778863e-10
6.582341890520506e-11
3.647197036528489e-11
1.9929400741564642e-11
1.0744985575840514e-11
5.717098611908104e-12
3.0020680853878077e-12
1.5558038098763722e-12
7.958566399892338e-13
4.0196016067050224e-13
2.0053710811172114e-13
9.88854377731058e-14
4.822938307034255e-14
2.328565890166808e-14
1.1139050277334827e-14
5.284386343577666e-15
2.4883911016668635e-15
1.1639222658810328e-15
5.409205915279432e-16
2.497605968455431e-16
1.146580959889101e-16
5.2548439636572726e-17
2.425310507730835e-17
1.1296445610323063e-17
1.629801356284054e-17
7.24284541260463e-18
3.2380572432457785e-18
1.6977319202408706e-18
1.1216847268235897e-18
7.669070308161794e-19
4.535864236010583e-19
3.0657098797499915e-19
6.936326632247135e-19
2.3650311655278674e-18
6.537879168806081e-18
1.497061484080373e-17
2.986581751359524e-17
5.193168031095062e-17
7.448198057692104e-17
7.682273881285023e-17
3.6501595611333944e-17
1.2882036529885653e-17
4.0290088822954693e-16
2.501682603507543e-15
9.440439410001294e-15
2.7395739619837352e-14
6.701416890925177e-14
1.4660261247689778e-13
3.0484775894687004e-13
6.469791726676894e-13
1.4826280450818937e-12
3.680583632671892e-12
9.497962526252161e-12
2.4420145419077378e-11
6.115841361124754e-11
1.4826725707286803e-10
3.485328689255361e-10
7.974520925141132e-10
1.7814637386855578e-09
3.8915392316448884e-09
8.313401423598987e-09
1.7354236737722694e-08
3.5358916217253024e-08
7.023299194840692e-08
1.3585097964312252e-07
2.556549728050649e-07
4.6768567387018686e-07
8.310592724092615e-07
1.4334285680929799e-06
2.3981997536049366e-06
3.8892691121256785e-06
6.110014502523411e-06
9.29264711426544e-06
1.3674380752941374e-05
1.9458776196581763e-05
2.6764322224754142e-05
3.55674257369987e-05
4.565223746608467e-05
5.6583120620067405e-05
6.771487642706079e-05
7.824964290538037e-05
8.733803343345244e-05
9.420825847158481e-05
9.829526897592719e-05
9.933736506012723e-05
9.741343686993732e-05
9.290957949881563e-05
8.642458471936955e-05
7.864232922653638e-05
7.020816583544079e-05
6.164239480248712e-05
5.330841295703096e-05
4.543261547970791e-05
3.815583704847171e-05
3.158850316352959e-05
2.5845620242074725e-05
2.1050215857896777e-05
1.7308726008466196e-05
1.4672936578509146e-05
1.310677481291345e-05
1.2472436355681247e-05
1.254183237655681e-05
1.3030111436664752e-05
1.3641386613259627e-05
1.4114417531322893e-05
1.425767420801409e-05
1.3967514507032628e-05
1.3228293892782534e-05
1.209752888833746e-05
1.0681838019707139e-05
9.11007069583552e-06
7.509131016586087e-06
5.986131442757555e-06
4.618350706762849e-06
3.4505818309981534e-06
2.4981817620300644e-06
1.7535772367623759e-06
1.1940491229542752e-06
7.890998672378536e-07
5.06365954383454e-07
3.1566820828223575e-07
1.9127187260591624e-07
1.1271069861150347e-07
6.463190383377958e-08
3.609311634825043e-08
1.96474468242402e-08
1.0438027131391914e-08
5.420685686753032e-09
2.757636225115132e-09
1.3781600943510282e-09
6.791654200091658e-10
3.316563449265773e-10
1.6147860381905772e-10
7.897258092596225e-11
3.9119453625829475e-11
1.9794867089502705e-11
1.0308481258720558e-11
5.552843822176705e-12
3.0988966639107623e-12
1.7878306856661176e-12
1.060582837853216e-12
6.421592708980049e-13
3.9357993594151326e-13
2.4217844455765967e-13
1.484386209801113e-13
8.995234085155719e-14
5.348629185333395e-14
3.094534837315985e-14
1.724253354860714e-14
9.124441079759208e-15
4.491840895673595e-15
1.9887377743464623e-15
7.447046598490758e-16
2.0906580490805375e-16
4.214727645629899e-17
4.2821317074083916e-17
9.955099793503639e-17
1.5699565110506456e-16
1.9325035692940342e-16
2.0461095699515992e-16
1.9579315102030747e-16
1.7410011078712173e-16
1.4635655558167453e-16
1.1765542607982363e-16
9.116913838150711e-17
6.847986752203593e-17
5.007240850965292e-17
3.5791481046207877e-17
2.5181249449311455e-17
1.769690489841215e-17
1.2813481050759904e-17
1.0066898740819077e-17
9.057900542197076e-18
9.439993311752363e-18
1.0903536611343229e-17
1.3162553458615052e-17
1.5949291477611307e-17
1.9023003779571678e-17
2.2201764839554217e-17
2.5426781964281232e-17
2.8865075906707875e-17
3.3046769353250696e-17
3.901707632943631e-17
4.8461875222963644e-17
6.374321894351649e-17
8.776343199690359e-17
1.2357176367768266e-16
1.7364528558505086e-16
2.388251266718362e-16
3.169782328196183e-16
4.0158993226692764e-16
4.806792251228198e-16
5.366735644235688e-16
5.48191533817931e-16
4.950659608264169e-16
3.6838252836540735e-16
1.877394568044045e-16
2.816464486491962e-17
5.876995840175204e-17
5.93602850317363e-16
2.1512604033677266e-15
5.5123754321389915e-15
1.1751822114375108e-14
2.2204963375448786e-14
3.830627041708077e-14
6.12207296719364e-14
9.118869374988772e-14
1.2655187606479738e-13
1.6256960286136994e-13
1.904397088411123e-13
1.9749377269369328e-13
1.704203575784339e-13
1.0459286107095191e-13
2.3960606778443095e-14
1.6921721867032387e-14
2.928339464934152e-13
1.2589229314503517e-12
3.6044919902618798e-12
8.353550662812692e-12
1.680407527794255e-11
3.021452146250693e-11
4.904874104669253e-11
7.162057603651377e-11
9.226120236975036e-11
1.0002477877541065e-10
8.112509695791119e-11
3.291162813960199e-11
6.050993573239087e-12
2.0722795598489995e-10
1.220293539014071e-09
4.442633805914289e-09
1.2887790611589752e-08
3.2574126630421164e-08
7.479577542107217e-08
1.5964022161042263e-07
3.2114834991241466e-07
6.144657421788441e-07
1.1251546708058067e-06
1.9804664811544855e-06
3.3617661988491524e-06
5.516442020209341e-06
8.766575614163404e-06
1.3510551885400856e-05
2.0212937276422798e-05
2.9377772578514916e-05
4.150140315462687e-05
5.700354285715576e-05
7.613961008497151e-05
9.890315525795458e-05
0.00012493340939819097
0.00015344794538433746
0.00018322211117220778
0.00021263346205690993
0.00023978010078795896
0.00026266753597286235
0.0002794422119456599
0.00028863550886678923
0.0002893742911395904
0.00028151625127583184
0.0002656809869847514
0.0002431684034929069
0.0002157794565047242
0.0001855741788458618
0.00015461306388360325
0.0001247276052869027
9.735497343356182e-05
7.345429763295419e-05
5.3503195719574254e-05
3.755807840373298e-05
2.535350115873535e-05
1.641502010431508e-05
1.0164949004177926e-05
6.008203355527524e-06
3.3931651756196643e-06
1.8482851459236727e-06
9.983440173971915e-07
5.653663286434583e-07
3.590273525036091e-07
2.6082129154899297e-07
2.0565710811166633e-07
1.639287326856534e-07
1.26331482045019e-07
9.271700080180375e-08
6.522656947300868e-08
4.506015350834767e-08
3.173345347962136e-08
2.360716893123469e-08
1.8739804386262044e-08
1.552656509534804e-08
1.2961467092264221e-08
1.059515113986995e-08
8.344694218771995e-09
6.290916100277511e-09
4.535850650241264e-09
3.134868491822271e-09
2.084721775024723e-09
1.340039817698044e-09
8.365744642935188e-10
5.095990624024105e-10
3.0416788380164234e-10
1.7851174374338863e-10
1.0327611278752397e-10
5.89933397898256e-11
3.329559901202783e-11
1.856843730394076e-11
1.0228769074697634e-11
5.563271916010334e-12
2.986271305093936e-12
1.581771190243041e-12
8.26822726750198e-13
4.26669120581813e-13
2.1748943093731327e-13
1.0959511779325255e-13
5.464413988190742e-14
2.698483219941847e-14
1.3211430401157907e-14
6.4185760322474515e-15
3.0969212508547584e-15
1.4848943489610216e-15
7.07960129544913e-16
3.360136580386046e-16
1.5907723380179825e-16
7.523125231934512e-17
3.5386109471689644e-17
5.187040520566602e-17
2.4674274265627982e-17
1.1975675618170657e-17
6.157263569035552e-18
3.294532597602059e-18
1.599058628863038e-18
5.033797043716537e-19
1.2378812260193915e-20
3.385281221852819e-19
1.7061474949468024e-18
4.317763670126683e-18
8.752276547605704e-18
1.6486050421242975e-17
2.90742486531623e-17
4.5009043989725815e-17
5.702136626476117e-17
6.044847717062984e-17
9.827230539152098e-17
3.8984708307909184e-16
1.591911209456008e-15
5.1588187246504036e-15
1.3564736339114397e-14
3.0014539008939895e-14
5.799088126660419e-14
1.043185970373005e-13
1.9812086809663964e-13
4.555688054043118e-13
1.2522408990939493e-12
3.62673143944374e-12
1.0177655306646323e-11
2.704946149047454e-11
6.838059894696332e-11
1.6627770109661343e-10
3.9278947753271354e-10
9.068197084100668e-10
2.050556288017519e-09
4.539924131124563e-09
9.825834999965598e-09
2.075162551014741e-08
4.269845683300161e-08
8.54883724486333e-08
1.6638263444070257e-07
3.1452517835295855e-07
5.770622810696963e-07
1.0268217524540459e-06
1.7707672933105181e-06
2.957433449620436e-06
4.780324522792375e-06
7.473187994929017e-06
1.1292750482292059e-05
1.648564657530177e-05
2.323941155378856e-05
3.162249105636334e-05
4.152424420480329e-05
5.261088917734641e-05
6.431474221048072e-05
7.586987308636647e-05
8.639704731813953e-05
9.502665554227859e-05
0.00010103471207379843
0.00010395936229131702
0.00010366775440205562
0.00010035614316179167
9.44858064522384e-05
8.667661127893427e-05
7.759138997792267e-05
6.784329692982592e-05
5.7945837763345284e-05
4.8306987719466764e-05
3.9252597067305126e-05
3.105646996159679e-05
2.3957205305991976e-05
1.8152460050984594e-05
1.3774113417986895e-05
1.085718033369854e-05
9.3179580697326e-06
8.95286557488733e-06
9.461466251142998e-06
1.0488921662173392e-05
1.1677561105875234e-05
1.2715680890366934e-05
1.3373754985995224e-05
1.3522536966752069e-05
1.3132376246272828e-05
1.2257093406725532e-05
1.1008190583428315e-05
9.525844023953353e-06
7.952316840968536e-06
6.411672184756804e-06
4.997561276709145e-06
3.7689335230779183e-06
2.7521254832673546e-06
1.9470822903897634e-06
1.3354071515432807e-06
8.883453444279674e-07
5.73456491601353e-07
3.593980595917628e-07
2.1878464897768786e-07
1.2943354395801152e-07
7.445882345127489e-08
4.16793679041107e-08
2.2721089672654566e-08
1.2075744423322013e-08
6.2661902327940865e-09
3.1808750175012532e-09
1.5837946500976456e-09
7.763075520540806e-10
3.764177380706313e-10
1.8171655444635832e-10
8.804955975289009e-11
4.323485819187907e-11
2.1735340268641934e-11
1.1291871920971772e-11
6.100489770129491e-12
3.4328519574271786e-12
2.005071574675928e-12
1.2066280035474425e-12
7.411150566070707e-13
4.600667986684593e-13
2.860313611025846e-13
1.766393196626462e-13
1.0753233229561577e-13
6.404452787491975e-14
3.700622751970286e-14
2.053005317450747e-14
1.0778527138849858e-14
5.237935374485347e-15
2.267805450317622e-15
8.099424086768914e-16
1.9532393881834076e-16