# vtk DataFile Version 4.1 
COMMENT
ASCII
DATASET STRUCTURED_POINTS 
DIMENSIONS 300 300 1 
ORIGIN 0 0 0
SPACING 0.020943951023931952 0.020943951023931952 0 
POINT_DATA 90000
SCALARS U double 1
LOOKUP_TABLE default
5.216880834184282e-19
1.0174075412886035e-18
1.7128682305386817e-18
3.6394648933598645e-18
8.444588512507307e-18
1.8797598359346955e-17
4.069233045943188e-17
8.858139701190924e-17
1.9581001054934444e-16
4.37264476453696e-16
9.792318007105034e-16
2.18513716760874e-15
4.827822692749695e-15
1.048863298771841e-14
2.2246420736427568e-14
4.57285292293051e-14
9.04034569055946e-14
1.7045416523649595e-13
3.0346278406710407e-13
5.034715882473677e-13
7.637394455633984e-13
1.0271893592431123e-12
1.157716944372036e-12
9.698905378828194e-13
4.745809454340625e-13
6.86846506982683e-13
5.648986914300257e-12
2.675566582549109e-11
9.101795787566229e-11
2.5558815277346667e-10
6.318924084430349e-10
1.424759332011594e-09
2.9964781336084403e-09
5.975253460489897e-09
1.144517652331207e-08
2.1283121514486917e-08
3.8746437086369023e-08
6.945720407512253e-08
1.2295765379072958e-07
2.149981599006964e-07
3.706227241157442e-07
6.278887792033951e-07
1.0416579285014204e-06
1.68631773538818e-06
2.655617287407173e-06
4.057224797689796e-06
5.9995032077885565e-06
8.568823691900834e-06
1.1797929501577724e-05
1.562952951628689e-05
1.988388057268706e-05
2.424316640351492e-05
2.826683024574355e-05
3.1448475827987134e-05
3.331546115018919e-05
3.35581137582053e-05
3.216058970237616e-05
2.9495660541677157e-05
2.6346683569509422e-05
2.383410730044309e-05
2.324844610537907e-05
2.5819225084491364e-05
3.247025128709267e-05
4.3617896110126796e-05
5.905845816006117e-05
7.796718408868865e-05
9.900376749500825e-05
0.00012049633658686353
0.00014066404877370993
0.00015783830931626316
0.00017065090405905125
0.00017816887718600204
0.00017996671982492275
0.00017613471994279187
0.0001672286061053144
0.00015417102067248376
0.00013812031483700912
0.00012032593428922689
0.00010199088461620591
8.415941967837543e-05
6.76423150897999e-05
5.29842449227808e-05
4.046993331126942e-05
3.015981917063596e-05
2.1943054641941884e-05
1.5595813162436223e-05
1.0835326871164617e-05
7.363630111374078e-06
4.898545791582407e-06
3.1922619668100746e-06
2.039594889468127e-06
1.2787696240747334e-06
7.875245974405589e-07
4.768756087034318e-07
2.8423055583178323e-07
1.669163416212653e-07
9.66649046829435e-08
5.523940756192601e-08
3.115551491247214e-08
1.7337378133568933e-08
9.509264260363188e-09
5.131078851673466e-09
2.7158930665797145e-09
1.40433552921664e-09
7.053682949624308e-10
3.414597557377007e-10
1.5754490314535174e-10
6.813793523930442e-11
2.6896032118618904e-11
9.240893448678253e-12
2.513628639858029e-12
4.504671788760299e-13
1.233492925471163e-13
2.768958669470414e-13
4.481247022409197e-13
5.178518417283578e-13
4.944327897773355e-13
4.1815464668126464e-13
3.2504307860808545e-13
2.3760002396250845e-13
1.6607413198266488e-13
1.1260299769643135e-13
7.51013599227414e-14
4.996300755371299e-14
3.3584571904058324e-14
2.3029925363142785e-14
1.6179273105488123e-14
1.1627853614147479e-14
8.502134756177561e-15
6.2817030213706085e-15
4.661628482800152e-15
3.4601088600704894e-15
2.562928552607224e-15
1.8929931619597926e-15
1.3947622253052162e-15
1.0265090258279389e-15
7.562575446430194e-16
5.593311427713316e-16
4.1665674869463566e-16
3.1352768502625956e-16
2.387110308309603e-16
1.8380727963666087e-16
1.4275971902648813e-16
1.114219634509114e-16
8.712973051473848e-17
6.827063438564027e-17
5.3883701883360963e-17
4.3335847212492267e-17
3.611355012103035e-17
3.1741632738651977e-17
2.9809816429198506e-17
3.006447663656049e-17
3.251628618885322e-17
3.7525812094038927e-17
4.5852878902196384e-17
5.86807514222417e-17
7.764054488789799e-17
1.0485479040393621e-16
1.4298741705906763e-16
1.9523388281260624e-16
2.6512196738109854e-16
3.559424126534399e-16
4.696199250508536e-16
6.049073066552603e-16
7.549806734700915e-16
9.048722404560202e-16
1.0297329489479407e-15
1.095696896091564e-15
1.0661478268254237e-15
9.17497397825007e-16
6.702198230138751e-16
4.428835518528186e-16
5.392373822661481e-16
1.5807996708010682e-15
4.6992323680348954e-15
1.1802860541777023e-14
2.5928193125652618e-14
5.167789936208267e-14
9.57290161146918e-14
1.6736727039207144e-13
2.78964024158811e-13
4.4626042949587e-13
6.882580395816001e-13
1.0264418435705948e-12
1.4830227192055726e-12
2.0780588328871436e-12
2.826270351306911e-12
3.737659872239075e-12
4.835491254957111e-12
6.229210221642887e-12
8.335946096991072e-12
1.2466006388839931e-11
2.2236466915458085e-11
4.675703123476295e-11
1.0741039734455474e-10
2.5157071365615387e-10
5.790934874442749e-10
1.2912358131259235e-09
2.777125045360815e-09
5.759992366723437e-09
1.1533481482224168e-08
2.2325687443826114e-08
4.183193152895726e-08
7.595184620120993e-08
1.3374655453906406e-07
2.2859323747257818e-07
3.794575223044163e-07
6.121382178268041e-07
9.602857454421715e-07
1.4659891405528334e-06
2.179805495439568e-06
3.1602972150362223e-06
4.4734379014229875e-06
6.192579736509653e-06
8.399909297113922e-06
1.1190274976418921e-05
1.4677783717707178e-05
1.9004580678954386e-05
2.434988002015469e-05
3.09359713666198e-05
3.902710260790606e-05
4.8917325936364364e-05
6.090481589640228e-05
7.525261103119436e-05
9.213855373665907e-05
0.00011159959673052007
0.00013347704187461446
0.00015736968722467339
0.00018260186464745754
0.0002082136630506084
0.00023298137821777087
0.00025547643652398014
0.0002741687947175645
0.0002875742784799522
0.00029443418325560356
0.00029390203848336896
0.000285701510864111
0.00027021654242045994
0.00024848367057066353
0.0002220766071317861
0.00019289935962430864
0.00016292812200572186
0.00013395560477685831
0.0001073896729961912
8.414182532201106e-05
6.461598333565064e-05
4.8782734579115195e-05
3.630637489698549e-05
2.6686172115261325e-05
1.9379001902337536e-05
1.3883862005051298e-05
9.784003463909244e-06
6.754420444876888e-06
4.548421239319964e-06
2.9769291339966066e-06
1.8900576159196196e-06
1.1651380231656539e-06
7.010186536008739e-07
4.161908181727895e-07
2.48037260625581e-07
1.5144189210909966e-07
9.622804995295127e-08
6.37803200763624e-08
4.3546108232096636e-08
3.0017879084783196e-08
2.050171151025494e-08
1.3688354681285678e-08
8.864707725506054e-09
5.548039290362824e-09
3.3523757761461202e-09
1.956953067040364e-09
1.105355767285768e-09
6.053600502728373e-10
3.2218229125409575e-10
1.67009800758581e-10
8.449125786816465e-11
4.1784431864928646e-11
2.0222583549662416e-11
9.584322603672144e-12
4.450020307279811e-12
2.0252810756073544e-12
9.047307534773323e-13
3.9783919213469493e-13
1.730704917464317e-13
7.502940862244263e-14
3.269599258029599e-14
1.443234611153852e-14
6.474572061215264e-15
2.9422382034603835e-15
1.3417555791734264e-15
6.066168251709054e-16
2.6849290702758263e-16
1.1459221716935487e-16
4.6173871307137614e-17
1.730515852747191e-17
6.274804007102663e-18
2.4178977648807578e-18
8.524336636877632e-19
1.0781471925249056e-19
7.585833074520367e-20
5.127597068168031e-19
4.200683214134002e-19
3.717074443078017e-19
1.1626585692025464e-18
3.361162200015202e-18
7.630395673466894e-18
1.6388951413089338e-17
3.641971983824999e-17
8.333305876188319e-17
1.9174412450648429e-16
4.39083107300718e-16
9.974348650011983e-16
2.2395947062766737e-15
4.944217986462096e-15
1.0665418088709584e-14
2.2333454029274288e-14
4.5083774684260617e-14
8.707401073917191e-14
1.5951197493230016e-13
2.742478858162783e-13
4.365583123539008e-13
6.321032338003928e-13
8.155268804430566e-13
9.341133663350263e-13
1.080223676861804e-12
1.9823308101379928e-12
6.233541811648363e-12
2.0917234096700574e-11
6.259497148859259e-11
1.6595326723863485e-10
3.9787648068104686e-10
8.798228364154008e-10
1.8243642019631965e-09
3.59884938680948e-09
6.8434810499083334e-09
1.269572947011124e-08
2.3209026367793565e-08
4.2097314359818554e-08
7.597633720274141e-08
1.3628452522184466e-07
2.4201548446121756e-07
4.232346518943739e-07
7.250377816003827e-07
1.2111122547092064e-06
1.9654162524278308e-06
3.0898385682207022e-06
4.695341192496751e-06
6.8844646416285695e-06
9.724675513382665e-06
1.3215123396149537e-05
1.7253648400677292e-05
2.1615180841719748e-05
2.5955004706529215e-05
2.9848443490212378e-05
3.2870913205825116e-05
3.4709575063782484e-05
3.5283359619054046e-05
3.4837454552688104e-05
3.3977139204474204e-05
3.361715547539342e-05
3.484482893204903e-05
3.8721087933690586e-05
4.606395478438812e-05
5.7266049781668476e-05
7.218840802000237e-05
9.015127203347504e-05
0.00011001701899472807
0.00013034016766119043
0.00014955016482574808
0.00016613458388783548
0.0001787991919795034
0.00018659131020284583
0.00018897997328198624
0.0001858898481596733
0.00017768764382902156
0.00016512246203015317
0.00014922650136525438
0.00013118888284080805
0.00011222072243606452
9.343147724441668e-05
7.573387301006095e-05
5.9788058597197696e-05
4.5987124901539624e-05
3.447829171529613e-05
2.520884442455842e-05
1.7984083660696967e-05
1.2525776770913256e-05
8.522774039055222e-06
5.669285174510637e-06
3.6897544541539952e-06
2.35172959777797e-06
1.469441624813457e-06
9.011669467006123e-07
5.431419371302168e-07
3.2216747426011913e-07
1.8833062318010406e-07
1.0864168726324089e-07
6.190996383730256e-08
3.4871636180290545e-08
1.9414057397688602e-08
1.0674045554780416e-08
5.785508578689443e-09
3.0827295361030018e-09
1.6084220716121376e-09
8.174593308771745e-10
4.0196088574336136e-10
1.8954219507275974e-10
8.471381537282744e-11
3.5339887477751375e-11
1.3515987112137556e-11
4.7097170750056786e-12
1.631297125641565e-12
8.103717400951806e-13
7.166078273646142e-13
7.539880769861965e-13
7.421444864699421e-13
6.626914091744966e-13
5.446725888154778e-13
4.1934344022107664e-13
3.069148445456352e-13
2.1621641720887373e-13
1.482753171200427e-13
1.0004914126833514e-13
6.710476727196123e-14
4.5145551732670856e-14
3.0673502593322536e-14
2.112641865164311e-14
1.475894081705601e-14
1.0439922532140933e-14
7.457138886945904e-15
5.36521755761177e-15
3.881606352742196e-15
2.8216683918274494e-15
2.060673157485982e-15
1.5121388445410348e-15
1.1152250701160429e-15
8.268770025795989e-16
6.165274006738154e-16
4.623606142898549e-16
3.486871705052515e-16
2.641593439904088e-16
2.005955433675247e-16
1.5219703473197665e-16
1.1497975930491197e-16
8.63062007062001e-17
6.446858700519249e-17
4.8325961150286195e-17
3.7022813186993035e-17
2.981534505311222e-17
2.601093411885205e-17
2.4999687258144414e-17
2.633702886884154e-17
2.9831809299424854e-17
3.5607271635737315e-17
4.412677492292548e-17
5.620141812996941e-17
7.300993530138774e-17
9.615232448934445e-17
1.2772378220703342e-16
1.7033946051788356e-16
2.269777885081871e-16
3.004641630077514e-16
3.924182438456638e-16
5.015703299477829e-16
6.215459720284946e-16
7.385450613379664e-16
8.29812690752859e-16
8.644176618391415e-16
8.086308844124359e-16
6.391670821062215e-16
3.6879727244394477e-16
9.046293011080811e-17
4.809378526060717e-17
7.447371170723429e-16
3.1008332953066596e-15
8.676341377913952e-15
1.9967850531840024e-14
4.078270517625668e-14
7.667241889053028e-14
1.353722057408717e-13
2.2713616848041348e-13
3.647708329433979e-13
5.630444271742462e-13
8.369820631368341e-13
1.1983773725304057e-12
1.6498062182993912e-12
2.175996981930251e-12
2.7348904546761168e-12
3.2582242547122317e-12
3.690858266783326e-12
4.143390144251375e-12
5.331064969354317e-12
9.673139798047079e-12
2.3816196319642667e-11
6.406098256510397e-11
1.674243066311004e-10
4.1314315996014643e-10
9.626749113742401e-10
2.130996109837236e-09
4.508400767452704e-09
9.159726661623456e-09
1.7935819322735055e-08
3.3937654299035325e-08
6.217303571011483e-08
1.1043431329682153e-07
1.9039861150058316e-07
3.189080734979136e-07
5.193314121182219e-07
8.228540011510147e-07
1.2695164341748547e-06
1.9088512318909256e-06
2.800078592413147e-06
4.012015441201355e-06
5.623086174668426e-06
7.72200665688241e-06
1.0409717323413525e-05
1.3802846832016788e-05
1.8038350609669768e-05
2.327808634992112e-05
2.9711222251039316e-05
3.755188977239504e-05
4.702971567207553e-05
5.837189541618103e-05
7.177704658171058e-05
8.738264437500584e-05
0.00010522878285933484
0.00012522105754180003
0.00014709489780230972
0.00017038364649204897
0.00019439410912390617
0.00021819644258605665
0.00024063897583567815
0.00026040033006940685
0.0002760881391889176
0.0002863841764780341
0.00029022101350800213
0.00028695992075691867
0.0002765299012861667
0.000259489079420569
0.00023698408295273177
0.0002106073762095343
0.00018217917323936418
0.00015350051921716163
0.00012613047504649087
0.00010123115587063836
7.950338050711785e-05
6.121053603186094e-05
4.626732861821683e-05
3.4359285510839486e-05
2.5059771872298342e-05
1.7921226549590553e-05
1.2531116243743129e-05
8.535438349769183e-06
5.639984812475776e-06
3.6011941282296143e-06
2.215707058273945e-06
1.313215719744354e-06
7.531564491843074e-07
4.2351981519241157e-07
2.396478706993775e-07
1.4169210729553923e-07
9.054034086952461e-08
6.284636060317804e-08
4.607596672057104e-08
3.431194762152431e-08
2.5181392041164023e-08
1.7905280912494393e-08
1.2243511574721438e-08
8.034737141392428e-09
5.063993373763039e-09
3.0715128400010664e-09
1.7975400503204514e-09
1.0178553057530866e-09
5.592213765243605e-10
2.988930368507183e-10
1.557812708438311e-10
7.933621430776558e-11
3.9547591641481487e-11
1.9322738745303398e-11
9.265534490706382e-12
4.3666288905491e-12
2.026484820491709e-12
9.287409917044489e-13
4.220001750992538e-13
1.9103889698913505e-13
8.660291437969587e-14
3.9468020093983946e-14
1.81034478448164e-14
8.33583744775625e-15
3.829580805967155e-15
1.7406507033892421e-15
7.752416698088785e-16
3.3476158964708567e-16
1.3876914152706298e-16
5.50597614970459e-17
2.1104804786558932e-17
7.753824252821648e-18
2.4591438368858385e-18
5.926924875242126e-19
3.507625328150183e-19
1.0196466019824215e-18
2.904072928705574e-19
1.043819587033314e-20
5.546870479973441e-19
1.645939991549228e-18
3.0728178800302123e-18
6.008404870525119e-18
1.393435519900056e-17
3.3930391427031845e-17
8.110193333841759e-17
1.9027734987710375e-16
4.4158209021007394e-16
1.013202996604755e-15
2.2872392423170827e-15
5.051062741703775e-15
1.084935497726534e-14
2.253110919097568e-14
4.495813877087396e-14
8.563077289939406e-14
1.5461687660410181e-13
2.628872678302904e-13
4.1903807523340665e-13
6.293669618274455e-13
9.216298646375267e-13
1.449118129791838e-12
2.8023445338141706e-12
6.769916042251218e-12
1.7940514472720845e-11
4.6689744562124353e-11
1.1420679435569974e-10
2.6033182305554114e-10
5.554447877268625e-10
1.1194507030648315e-09
2.1559676350591644e-09
4.021021309774872e-09
7.3660902360265415e-09
1.3427248870109544e-08
2.4573922163942447e-08
4.527457307595681e-08
8.366560326279927e-08
1.5389571440493796e-07
2.793210037335035e-07
4.963982272243727e-07
8.58722866577868e-07
1.4400795538931533e-06
2.3346971306458692e-06
3.6523561434894523e-06
5.505980754718445e-06
7.990362406542492e-06
1.1153105184821849e-05
1.4962697038652799e-05
1.928294021706129e-05
2.3866056753981084e-05
2.837635841680031e-05
3.2450664327984804e-05
3.5790665353447815e-05
3.826883846095405e-05
4.001836815816346e-05
4.1474519439777354e-05
4.3343569697033277e-05
4.649473847497893e-05
5.179447603352027e-05
5.992194714473017e-05
7.121160054080988e-05
8.556036211863735e-05
0.0001024168621934222
0.00012084672414603812
0.00013965048756421608
0.00015750465300247928
0.00017310112916375458
0.00018527071039262205
0.0001930854394147628
0.00019593852348402587
0.00019359884215258726
0.00018623349363035573
0.0001743906672473128
0.0001589389702573464
0.00014096757526215503
0.00012166097647684918
0.00010216879442136272
8.349225096404487e-05
6.640431224585769e-05
5.141193700546653e-05
3.875936987515061e-05
2.8463781488559136e-05
2.0370432283833153e-05
1.4214152722281088e-05
9.676401411851279e-06
6.431080730537283e-06
4.1763154623045716e-06
2.6526143958127464e-06
1.6498410144085693e-06
1.0062509417288473e-06
6.027969591556567e-07
3.5532274530015384e-07
2.064888063126927e-07
1.1852553092877776e-07
6.731109062964384e-08
3.786407535213187e-08
2.1106718448994696e-08
1.165318888093043e-08
6.362383846698265e-09
3.426133011262024e-09
1.8131139624147524e-09
9.38701023097713e-10
4.729654164787209e-10
2.3057639906606543e-10
1.0813947579702427e-10
4.860351778328139e-11
2.1015096183912105e-11
8.982479513098756e-12
4.110352962442205e-12
2.2893903388598445e-12
1.6299771521372021e-12
1.338809493376027e-12
1.1290352059308002e-12
9.252634072601588e-13
7.259206690485191e-13
5.455394776751079e-13
3.949060493848241e-13
2.7729607956985814e-13
1.9028439181103287e-13
1.285621874789326e-13
8.61356137107273e-14
5.75941014616346e-14
3.862660430564786e-14
2.60711454737182e-14
1.773936225609099e-14
1.217486392497043e-14
8.429518688227904e-15
5.889871257506027e-15
4.156406138384285e-15
2.9654829875228794e-15
2.140929000024086e-15
1.564242585767152e-15
1.155754160040695e-15
8.621506072215617e-16
6.4788813259447645e-16
4.892190722743266e-16
3.701187511846761e-16
2.7961450353108775e-16
2.1010280414010665e-16
1.5630421181790309e-16
1.1458618597132108e-16
8.247640707581295e-17
5.827582795748102e-17
4.0745129266810856e-17
2.8872761232812924e-17
2.1738723076048243e-17
1.847429854544679e-17
1.82967060848254e-17
2.0581569654173367e-17
2.4933877518017454e-17
3.1231615304160246e-17
3.9640202183349294e-17
5.061944512332817e-17
6.495547791854668e-17
8.383840111312507e-17
1.0896922512707106e-16
1.426237207859099e-16
1.875422700495177e-16
2.464783934787385e-16
3.212532175028521e-16
4.112559583546433e-16
5.115201407629981e-16
6.10796308839942e-16
6.90424970862824e-16
7.252744021069199e-16
6.885484491279028e-16
5.629340746335888e-16
3.614544340379464e-16
1.6268226792090344e-16
1.66800332385866e-16
7.81362650513807e-16
2.7481121170611054e-15
7.323750437563602e-15
1.652602346334724e-14
3.344847566688957e-14
6.262785213527319e-14
1.1041084783685865e-13
1.8520331139845925e-13
2.973846582855923e-13
4.585218313135554e-13
6.79315611519902e-13
9.654839707080568e-13
1.3106621027933782e-12
1.6857840052663653e-12
2.0263753223839587e-12
2.2252469435827804e-12
2.153696340035694e-12
1.7706315148165817e-12
1.457512541277959e-12
2.877063888521863e-12
1.0964047106759358e-11
3.823032019584721e-11
1.135791626017136e-10
2.995251860243793e-10
7.244244652105438e-10
1.6403737763571932e-09
3.5230764860516474e-09
7.237111519863349e-09
1.4297949236200061e-08
2.7268987284705836e-08
5.033481938797907e-08
9.008676621370792e-08
1.5653900139845388e-07
2.6436059171107854e-07
4.34261906276125e-07
6.944216483378371e-07
1.0818000584354943e-06
1.6431774700668377e-06
2.4358066114847264e-06
3.527678839887042e-06
4.997557663136421e-06
6.935070421642509e-06
9.441186244857186e-06
1.2629263409712701e-05
1.662649095102175e-05
2.1575044598736826e-05
2.763180462223107e-05
3.496528525762205e-05
4.374869199319825e-05
5.4148748407246865e-05
6.631083143656004e-05
8.0341520060566e-05
9.628943420063882e-05
0.00011412416101308071
0.00013371175654462592
0.00015478500403298177
0.00017690860530769877
0.00019944426468015346
0.00022152708562628886
0.00024207001295212442
0.000259813569818852
0.00027343113832998254
0.0002816855560863867
0.00028361453921052515
0.0002787069089332778
0.00026702565878552954
0.00024924164661143
0.0002265621970016129
0.00020056604358013603
0.00017298074258822148
0.00014545252808224714
0.0001193571978584636
9.56853430652076e-05
7.501224189038132e-05
5.754029321155448e-05
4.318696838079139e-05
3.168719343819658e-05
2.268478499908189e-05
1.5798847808087034e-05
1.0662764617057814e-05
6.9416312183028584e-06
4.33714640556318e-06
2.587808172968588e-06
1.4688835511453633e-06
7.931986239940966e-07
4.117197321573657e-07
2.1246526196748986e-07
1.1698895252420323e-07
7.471321504548138e-08
5.6135001505027225e-08
4.6122924176628106e-08
3.825512045584025e-08
3.066167869113068e-08
2.3375902020810606e-08
1.6904401087709503e-08
1.1620978080844287e-08
7.623270348303012e-09
4.791570545331499e-09
2.897213968101028e-09
1.6914737629510098e-09
9.567997444932336e-10
5.260245085216182e-10
2.818665798124584e-10
1.4757804975732428e-10
7.56660622557226e-11
3.806635413234024e-11
1.8825686576538375e-11
9.169807694682694e-12
4.408652429191856e-12
2.0974876001409624e-12
9.904721231236675e-13
4.657336969769444e-13
2.187103775493634e-13
1.0277078293333886e-13
4.8325801084957195e-14
2.2690876888804914e-14
1.0592650729165194e-14
4.887402075279138e-15
2.2138707241124416e-15
9.779411873102449e-16
4.190454880122048e-16
1.7381742044777503e-16
6.977695142119642e-17
2.6930136037554065e-17
9.913314771182479e-18
3.76397450116378e-18
1.850517402509914e-18
3.351706531010796e-18
1.2525733952161002e-18
6.332940986023626e-19
9.10596151118118e-19
1.1459865059681714e-18
1.0601649842083891e-18
1.6945315495070944e-18
4.9845817388769916e-18
1.3642723042517414e-17
3.350462300977217e-17
7.979678537099008e-17
1.895001084458363e-16
4.467710313663963e-16
1.0372359312355743e-15
2.3584633844685936e-15
5.227372338105445e-15
1.123783570711501e-14
2.331916339711014e-14
4.650125893460513e-14
8.879955445383599e-14
1.6213526505745827e-13
2.8391369774768566e-13
4.830060029633172e-13
8.231625885037697e-13
1.478794159842845e-12
2.940666369569209e-12
6.4966877144617935e-12
1.5215224630056247e-11
3.5718994120715845e-11
8.102387784633751e-11
1.7463018271915737e-10
3.56126123246859e-10
6.895486368091146e-10
1.2792303884617772e-09
2.3063584937514642e-09
4.1160086888032275e-09
7.411412059055892e-09
1.364968344249709e-08
2.5776710954024577e-08
4.947719251561807e-08
9.512867531828719e-08
1.8060414888523154e-07
3.3492201944264184e-07
6.024442889837683e-07
1.046837814667129e-06
1.7533649838840395e-06
2.8274105011823066e-06
4.386811141265793e-06
6.546025725938983e-06
9.391951987924327e-06
1.295443017310124e-05
1.7178623489061745e-05
2.191005654983839e-05
2.690396297685386e-05
3.1866755452173755e-05
3.6528346534174396e-05
4.073167993888386e-05
4.4514669360355786e-05
4.815530910263177e-05
5.215691960777475e-05
5.7167044323521365e-05
6.384511359561335e-05
7.271208749582485e-05
8.402200077136429e-05
9.76875137088778e-05
0.00011327270016402175
0.00013004490620971326
0.0001470628402708293
0.00016327537749043528
0.000177613732197995
0.0001890722534160737
0.00019678234479572168
0.00020008507601920896
0.00019860138219593464
0.00019228927525061546
0.00018147151681825903
0.00016681887784632528
0.00014928344528115036
0.00012998964837060116
0.00011010236318283019
9.069722008877754e-05
7.265645454205572e-05
5.660567742283088e-05
4.289610568399401e-05
3.162672205937221e-05
2.269413387020727e-05
1.585553887837847e-05
1.0791637601563304e-05
7.160121172450259e-06
4.634895360333002e-06
2.930203737319677e-06
1.811591255690225e-06
1.097057638570568e-06
6.520165302271703e-07
3.811970739932228e-07
2.1979708714432953e-07
1.2532602259977733e-07
7.08436726164626e-08
3.9780369918390614e-08
2.2213914842608863e-08
1.2335017921174037e-08
6.8018170917537396e-09
3.7151897031823935e-09
2.003190599939096e-09
1.0620727720438305e-09
5.515569021119044e-10
2.7967091174937677e-10
1.382783439534242e-10
6.685888382103811e-11
3.1980119259081414e-11
1.5549633789898172e-11
8.054004358233312e-12
4.676222791621297e-12
3.0924346483054323e-12
2.24902353788364e-12
1.7055565571820676e-12
1.2968908518886697e-12
9.692278449063677e-13
7.067105794017805e-13
5.023641586400126e-13
3.4897986937295426e-13
2.3783479419588665e-13
1.5973720861046924e-13
1.0621748196611922e-13
7.022762442909239e-14
4.633702665703681e-14
3.059939055643408e-14
2.0269943500117675e-14
1.3497280613592185e-14
9.055556087049483e-15
6.139678997517728e-15
4.221357966434531e-15
2.953322032545099e-15
2.1073543775167884e-15
1.5342692974080114e-15
1.1375715169901332e-15
8.556796429226307e-16
6.497537666567783e-16
4.954122792973235e-16
3.7724677452298193e-16
2.853380852642708e-16
2.1314068772478702e-16
1.5623669837264343e-16
1.1159417597258596e-16
7.709234409747493e-17
5.118427391604815e-17
3.2644706329990664e-17
2.0393839777656185e-17
1.340111913386676e-17
1.0665747366747495e-17
1.1255002748641889e-17
1.436931328864053e-17
1.940256799039804e-17
2.5979274391590256e-17
3.3971962750100096e-17
4.352255362076864e-17
5.509859504487017e-17
6.960072866863839e-17
8.849996700234884e-17
1.139303916568518e-16
1.486122778743468e-16
1.9545676750614569e-16
2.567318365837176e-16
3.327704444368428e-16
4.2038240419607663e-16
5.113815229654634e-16
5.9193462308728475e-16
6.437543643588318e-16
6.484926788662506e-16
5.970996444077812e-16
5.065232593362418e-16
4.471363027232564e-16
5.858894716698724e-16
1.2524717241352378e-15
3.0384130606609903e-15
6.9411322839468396e-15
1.4564450701288017e-14
2.8380770652138292e-14
5.204305888991502e-14
9.070027100680863e-14
1.512092789073275e-13
2.4203947459255e-13
3.7252314135475395e-13
5.509134518918148e-13
7.805013589342301e-13
1.0529315224330307e-12
1.338192883094919e-12
1.572413675830051e-12
1.6495582771395011e-12
1.435664556438471e-12
8.529916076711403e-13
1.429973427976801e-13
5.421477513972821e-13
5.8474150396107425e-12
2.5800081296057107e-11
8.302149360328895e-11
2.266052550021781e-10
5.576908020815073e-10
1.2757410661280771e-09
2.7591088524706326e-09
5.6998795079166936e-09
1.1320522070123795e-08
2.1707361305361432e-08
4.030099905449214e-08
7.258313225414395e-08
1.2698865236713813e-07
2.1604797242563795e-07
3.577263247096147e-07
5.768783587241e-07
9.06688333446266e-07
1.3899349481100566e-06
2.0799231763797113e-06
3.040974146352079e-06
4.348451887421977e-06
6.08840284581679e-06
8.356941046745285e-06
1.125947887690867e-05
1.4909762626023112e-05
1.942846798921718e-05
2.4940958090086053e-05
3.15738488137457e-05
3.945034530139244e-05
4.868482155099151e-05
5.9377499556707894e-05
7.160988565358637e-05
8.544047797942982e-05
0.00010089825050767135
0.0001179693271562995
0.00013657150438616965
0.0001565133940765473
0.00017744068578318516
0.0001987804540286733
0.00021970269602089462
0.0002391222779563302
0.00025576054745796525
0.00026827286388489234
0.00027542883406574516
0.00027631226814593576
0.00027049537363978745
0.0002581423471124781
0.0002400126425578967
0.0002173595944685058
0.00019174741201634585
0.00016482963676304465
0.00013813858863073028
0.00011292696670495451
9.008382389595366e-05
7.012504955068579e-05
5.3240764249499255e-05
3.937336256436988e-05
2.8300962802148886e-05
1.9708853062146318e-05
1.3241619549987247e-05
8.536933884659862e-06
5.246293387267097e-06
3.0483824239234368e-06
1.6586901883297951e-06
8.36505575965883e-07
3.8879068037110536e-07
1.701466135729044e-07
7.877431351310228e-08
4.9304445865604167e-08
4.4032537312926134e-08
4.419332516517319e-08
4.2519619477740374e-08
3.771350261120374e-08
3.0875323175908114e-08
2.354959404182207e-08
1.689198342715208e-08
1.1485443972485967e-08
7.451195170368276e-09
4.6375387349018454e-09
2.782017807737023e-09
1.6151581333169876e-09
9.108124027479726e-10
5.005159765492009e-10
2.6882005246896773e-10
1.4148831375417535e-10
7.315703109540199e-11
3.724410972973148e-11
1.8710136460960837e-11
9.29529762951197e-12
4.577033999550597e-12
2.2387792391599934e-12
1.0900610242146925e-12
5.29187813420286e-13
2.563427161297267e-13
1.23845451480393e-13
5.956155336134792e-14
2.842413412638815e-14
1.3404345765193674e-14
6.2184095151915844e-15
2.825986104419212e-15
1.2543303656835227e-15
5.4312466417151095e-16
2.2954615509209646e-16
9.496922536865377e-17
3.9000629532054826e-17
1.6555060074386973e-17
7.515301165170405e-18
1.3293382150811075e-17
6.2005604553944625e-18
3.4042102986336284e-18
2.2630757089368723e-18
1.2075042215488807e-18
2.1249364461606642e-19
2.7114097024660066e-19
2.0764372875688234e-18
5.874601332548719e-18
1.3527902023588876e-17
3.202143310612715e-17
7.856812989625481e-17
1.9196804520995284e-16
4.605831281548212e-16
1.083302429046104e-15
2.490215517090871e-15
5.569222444242022e-15
1.2071474416473084e-14
2.529519812110226e-14
5.118612162310723e-14
1.0014359727297525e-13
1.904468587437118e-13
3.563128004211174e-13
6.693788473972938e-13
1.295734394436324e-12
2.636171956796561e-12
5.636441254691672e-12
1.2395951896672999e-11
2.7213442422268102e-11
5.8132498659709585e-11
1.1886522464300508e-10
2.308278975223053e-10
4.25486519808251e-10
7.495531633163957e-10
1.2818969038840654e-09
2.183992581394195e-09
3.827714422290323e-09
7.0761533799737515e-09
1.3832862831213802e-08
2.8016193603435453e-08
5.714557859231059e-08
1.1472339246182131e-07
2.2352243150390187e-07
4.1969215389835483e-07
7.572193920673906e-07
1.3116975909019398e-06
2.181649579724931e-06
3.485064056012183e-06
5.348795134187225e-06
7.889579203247806e-06
1.1187993759252864e-05
1.526047338224054e-05
2.0038354500837617e-05
2.5364864410522893e-05
3.10189016076462e-05
3.676736992705096e-05
4.2436991789427845e-05
4.798576445572353e-05
5.354874913454761e-05
5.943680939210465e-05
6.6080624700386e-05
7.393129778632313e-05
8.33452148495927e-05
9.448685327000281e-05
0.00010727573196743498
0.00012138598202661583
0.00013628756226124228
0.00015130624399315487
0.0001656802780520311
0.00017860341600340322
0.00018925922578507537
0.0001968614655849928
0.00020071411754173213
0.00020029321732561764
0.0001953370682565721
0.00018592001581148486
0.00017248361759796455
0.0001558087069329664
0.00013692844244544403
0.00011699923575175172
9.715729433830616e-05
7.839026589170928e-05
6.144673602829359e-05
4.679454096046974e-05
3.462641646277263e-05
2.4902037922924895e-05
1.741083979637117e-05
1.1840072698301967e-05
7.835988481571239e-06
5.050979903148057e-06
3.174301555533471e-06
1.947625249226113e-06
1.1687633193192969e-06
6.875645526273419e-07
3.976600891932513e-07
2.2688084567532762e-07
1.2817432009019328e-07
7.196981196735386e-08
4.029421226113234e-08
2.254154529923183e-08
1.260622457661935e-08
7.038850975546369e-09
3.913318481073246e-09
2.1584231791072022e-09
1.176605729338916e-09
6.319187074702234e-10
3.3382207048139204e-10
1.7362959733185713e-10
8.938723279511619e-11
4.6085993911651204e-11
2.4275821496935894e-11
1.3412910995665393e-11
7.957085991988852e-12
5.102648865280188e-12
3.4861212186448655e-12
2.4726524388012607e-12
1.777258577112776e-12
1.273264817812085e-12
9.009755338124609e-13
6.272572789042981e-13
4.2935295677689736e-13
2.892717925172743e-13
1.922310491667222e-13
1.2631271483580302e-13
8.227721091930619e-14
5.325569562619606e-14
3.433222327284174e-14
2.2097531486952475e-14
1.4243319596879796e-14
9.232493686638067e-15