# vtk DataFile Version 4.1 
COMMENT
ASCII
DATASET STRUCTURED_POINTS 
DIMENSIONS 300 300 1 
ORIGIN 0 0 0
SPACING 0.020943951023931952 0.020943951023931952 0 
POINT_DATA 90000
SCALARS U double 1
LOOKUP_TABLE default
8.131923078584173e-19
6.30781512665363e-19
8.820100676954691e-19
2.77604382757846e-18
7.521592277654613e-18
1.685628572706671e-17
3.56420627424466e-17
7.621052546055168e-17
1.6561859307608153e-16
3.6257532184411607e-16
7.992368255107065e-16
1.7758486609374934e-15
3.962100812150721e-15
8.812684406071413e-15
1.940709917854215e-14
4.211952562360632e-14
8.992352373707702e-14
1.8899881644479427e-13
3.9221562193862204e-13
8.072771841106954e-13
1.6563725225037652e-12
3.4030659634149228e-12
7.019444819824584e-12
1.4535255113310918e-11
3.012590551596672e-11
6.216487921239557e-11
1.2686370688621041e-10
2.5425283638186336e-10
4.971056713410893e-10
9.42636082391403e-10
1.7250594611202215e-09
3.0344137078763774e-09
5.114473321280773e-09
8.24323507520824e-09
1.269899835115174e-08
1.8741134881215685e-08
2.6683752264831746e-08
3.7212313644570156e-08
5.217422095239259e-08
7.613403747068607e-08
1.1898025747004705e-07
1.997647608008068e-07
3.517348770325818e-07
6.282091497156359e-07
1.1086177759897435e-06
1.9037546783287625e-06
3.1591163114344804e-06
5.055115282566287e-06
7.802881249868918e-06
1.1634230312664245e-05
1.6784240880501025e-05
2.3464970401882897e-05
3.182965521303054e-05
4.192879534525313e-05
5.3663101650164114e-05
6.674291456834278e-05
8.066789700893826e-05
9.474217473448942e-05
0.00010813619908128874
0.00011999629652966238
0.0001295876314503787
0.00013644066322385058
0.00014046154304161486
0.00014196899518270035
0.00014163611285811806
0.00014034172548030684
0.00013896419972550485
0.00013817049426827503
0.00013825716860453244
0.00013908586428697736
0.0001401283266765997
0.00014060487914142135
0.00013967578634257351
0.00013663436583752158
0.00013105575832057483
0.00012287231009826973
0.00011236867938522781
0.00010010985209226324
8.682814490612978e-05
7.329911938852179e-05
6.0232265189742495e-05
4.819332834093445e-05
3.7564732447124024e-05
2.8541511836223456e-05
2.1154200717056373e-05
1.530761725102795e-05
1.0824923009236123e-05
7.488701500356686e-06
5.073967682780583e-06
3.3710753954050562e-06
2.198853672462967e-06
1.40975092752956e-06
8.893507501278562e-07
5.525612857567748e-07
3.3834143777225235e-07
2.0425196813863424e-07
1.2157658533145064e-07
7.133593337276797e-08
4.123956333549547e-08
2.3470130501911252e-08
1.3135174077420369e-08
7.218688536731891e-09
3.888593253885183e-09
2.0484140698962406e-09
1.051967175402251e-09
5.245673074467412e-10
2.526679370676927e-10
1.16790956769964e-10
5.1424613221925665e-11
2.1452442022459186e-11
8.54218036382512e-12
3.4284919459915453e-12
1.620201424725234e-12
1.0614730569702627e-12
8.878227669556648e-13
7.840706459128078e-13
6.661688502210765e-13
5.325875590367715e-13
4.011531501774231e-13
2.8655702396237214e-13
1.9548889779315577e-13
1.281508034870409e-13
8.113796787649698e-14
4.9807887949590273e-14
2.971025711936536e-14
1.7221862680156346e-14
9.67550401535159e-15
5.238243611943314e-15
2.7088370144045897e-15
1.3241207825778383e-15
6.084625099242063e-16
2.694961105080159e-16
1.3060612701231827e-16
8.836723066408715e-17
8.547498110467308e-17
9.30288182194413e-17
9.86996719288489e-17
9.893173686927787e-17
9.409494222017011e-17
8.578929185344952e-17
7.560781514710493e-17
6.475991349811318e-17
5.409357504149705e-17
4.421842870351401e-17
3.5585744383692537e-17
2.849676901809994e-17
2.3074887588775857e-17
1.9253943154807877e-17
1.6819071860884788e-17
1.5506090352147224e-17
1.513793390250457e-17
1.5763704989564967e-17
1.7771862139059384e-17
2.1970615975560122e-17
2.965674760568184e-17
4.271780878831487e-17
6.382258830013438e-17
9.674522038618448e-17
1.4683753083143668e-16
2.216125055510188e-16
3.3133044684705536e-16
4.893923157005024e-16
7.122541996165882e-16
1.01851337826725e-15
1.426840960838975e-15
1.9526503840649906e-15
2.603943433934811e-15
3.3778560405326463e-15
4.2612458222541396e-15
5.2414054216862085e-15
6.336713801856174e-15
7.661542269706082e-15
9.544300559766472e-15
1.272062689855561e-14
1.8622759868478193e-14
2.977709198195301e-14
5.029948658773921e-14
8.643602986138965e-14
1.4702982459518638e-13
2.436992271227091e-13
3.903928147128009e-13
6.018562677415807e-13
8.904415486794487e-13
1.2606791051806008e-12
1.7012469603996754e-12
2.1746296336038107e-12
2.6062465763131433e-12
2.8778028078101534e-12
2.8352698298111993e-12
2.3326093534147334e-12
1.3531805986803382e-12
2.9302731362482344e-13
5.788656738034331e-13
5.981353687269151e-12
2.537615055823239e-11
7.849594220575938e-11
2.0773826802528756e-10
5.018627935476387e-10
1.1421395615412969e-09
2.4890211657400283e-09
5.238374915880318e-09
1.0690681843734692e-08
2.1192729927049635e-08
4.082476809597812e-08
7.640860102197879e-08
1.3889150752273763e-07
2.451030227051691e-07
4.1977585695553757e-07
6.97570741309966e-07
1.12467501833241e-06
1.7594188944493776e-06
2.6713695823462035e-06
3.938635891872192e-06
5.643726118519617e-06
7.869228387379994e-06
1.0695623600937387e-05
1.4204278287593051e-05
1.8488514005107327e-05
2.3674041640440882e-05
2.9946724845319913e-05
3.758098123741543e-05
4.6957373468748106e-05
5.85550538775193e-05
7.2905878677317e-05
9.050367391872953e-05
0.00011167411009086388
0.0001364254456111798
0.00016431351845060753
0.0001943605105309269
0.00022506210900524414
0.00025450087497672015
0.0002805582916296851
0.000301191171412206
0.00031471838982560926
0.0003200581663366114
0.0003168668332906418
0.00030555419704426777
0.0002871806548369171
0.00026326788709737817
0.000235570528894693
0.00020585730446607599
0.00017573833228075688
0.0001465562826108926
0.00011933990189090314
9.480499844784615e-05
7.338308620811568e-05
5.52607085165712e-05
4.0419619611693205e-05
2.8675324768560236e-05
1.9715859759161322e-05
1.3143118550512674e-05
8.51656972153097e-06
5.396013098579264e-06
3.378158691961818e-06
2.12223070533969e-06
1.3621788551044175e-06
9.062182699152081e-07
6.269947461452657e-07
4.4686006188040454e-07
3.2245218493444104e-07
2.3149223614490045e-07
1.6312975141097253e-07
1.1185877987413051e-07
7.42616254399832e-08
4.760272951249687e-08
2.9416542029102766e-08
1.7503504653421647e-08
1.00152806784923e-08
5.5014188890821244e-09
2.8949045130339103e-09
1.4556835512266108e-09
6.977495210976655e-10
3.1828176808330055e-10
1.383016001090755e-10
5.768051331173826e-11
2.3595450104292752e-11
9.903397508736141e-12
4.545000437986596e-12
2.3754538529303036e-12
1.3805560955268172e-12
8.381428664608657e-13
5.046981739138826e-13
2.9330242276999757e-13
1.6275506724873513e-13
8.601881108521912e-14
4.33384007973475e-14
2.085972160177431e-14
9.617562638505817e-15
4.26094338862903e-15
1.820924928144359e-15
7.542614185036653e-16
3.048073450595144e-16
1.2140987743185707e-16
4.850202586026742e-17
1.989064580107765e-17
8.472436490310937e-18
3.662217093818224e-18
1.5885137730320114e-18
8.763379563493712e-19
8.208351222459947e-19
7.812276973068329e-19
1.4779187113197835e-19
9.46816928196236e-20
1.0814572636507257e-18
2.9464981403338348e-18
5.6333713203010885e-18
1.0865149218658045e-17
2.3386843292841314e-17
5.2352182029237885e-17
1.1727504894683833e-16
2.661622107101323e-16
6.182195071032531e-16
1.4579334657293232e-15
3.4407701549875376e-15
8.03467829017423e-15
1.844404947954655e-14
4.15168810227713e-14
9.168921874679749e-14
1.9923738783299134e-13
4.277626006326858e-13
9.11518296562082e-13
1.9349995239953175e-12
4.100632689638935e-12
8.67392905215306e-12
1.826936435976377e-11
3.8150175113900996e-11
7.854576915455517e-11
1.5847424879062853e-10
3.1143474288657093e-10
5.927284932658554e-10
1.086746777249998e-09
1.9101968278453976e-09
3.2045588565860505e-09
5.110331935153176e-09
7.721499487397477e-09
1.1038124534145939e-08
1.497536335372945e-08
1.9551426250214735e-08
2.5457476264019766e-08
3.5286189665182385e-08
5.572589084137312e-08
1.0097378172138563e-07
1.9745917354615248e-07
3.8970037906603744e-07
7.467843696230841e-07
1.3686098288799791e-06
2.3907124038739055e-06
3.9862024322907665e-06
6.363072692345576e-06
9.75488633802265e-06
1.4402749039531398e-05
2.0526792334534483e-05
2.8286596382187975e-05
3.773251880522062e-05
4.875392549997079e-05
6.103527921854344e-05
7.403536866612205e-05
8.700621828019447e-05
9.90638823869206e-05
0.00010931214468051197
0.00011700352900900415
0.00012170462186487094
0.00012342137310715975
0.00012264125835018748
0.00012026580662715811
0.00011743599258088049
0.00011528563758105436
0.00011468279851558949
0.00011602656815635362
0.00011915321608987335
0.0001233753064883465
0.0001276405472161811
0.00013076581102446137
0.00013168546033753904
0.0001296553371702414
0.00012437163830560576
0.00011598996382898104
0.00010505541706989212
9.23728486754313e-05
7.885385705979686e-05
6.537442098809644e-05
5.2667176902002686e-05
4.1259571609432204e-05
3.145723458208094e-05
2.3363428887770865e-05
1.6921289582967184e-05
1.1965354926000684e-05
8.271447175590952e-06
5.59782507788927e-06
3.7144507466953247e-06
2.4203517426755056e-06
1.5510493019078508e-06
9.788889918421107e-07
6.091126915021572e-07
3.7399857489900033e-07
2.2668670457305157e-07
1.3562781708137371e-07
8.006219473181141e-08
4.658753276939487e-08
2.668800969501224e-08
1.5026185527079944e-08
8.298122643646495e-09
4.483464478929813e-09
2.362484389910096e-09
1.2090624454210269e-09
5.976353366492228e-10
2.831207770790724e-10
1.271250583852167e-10
5.322004304989478e-11
2.0266556011771847e-11
6.7837444353381304e-12
1.9690897519683872e-12
6.500573200342813e-13
5.145670454391072e-13
6.346161040916516e-13
7.068271951670885e-13
6.798830797921926e-13
5.83867939380995e-13
4.603532648407874e-13
3.395600909129296e-13
2.372742170385092e-13
1.584262796287164e-13
1.0166733335812222e-13
6.293113698949571e-14
3.7623072950294e-14
2.1696594640429635e-14
1.2014353412051128e-14
6.33164078497926e-15
3.128228095794463e-15
1.4137976264896457e-15
5.617444852203145e-16
1.8565138031209647e-16
5.416163076235728e-17
3.443117551084016e-17
5.495930997970114e-17
8.113703145004855e-17
9.925388360380313e-17
1.063244815122891e-16
1.0399518423502029e-16
9.525192174667783e-17
8.292433814453398e-17
6.921064642887051e-17
5.567493243819429e-17
4.338296732276458e-17
3.301858727866436e-17
2.4943465460195013e-17
1.9226578448700207e-17
1.5685920363719112e-17
1.397063737450985e-17
1.3684808625299236e-17
1.4530339946283974e-17
1.643655140666699e-17
1.9651895858761232e-17
2.4795606189326954e-17
3.289518461858637e-17
4.545840245176641e-17
6.463591650772534e-17
9.351637719065823e-17
1.3655779594500364e-16
2.0009797247724364e-16
2.9280642783109165e-16
4.2584783153880114e-16
6.124381024164125e-16
8.66421049995644e-16
1.1995322893193012e-15
1.6172369158586065e-15
2.1135516943000527e-15
2.6662454840730473e-15
3.235421934492287e-15
3.7708727535259234e-15
4.236801131275459e-15
4.666385918566773e-15
5.262599720562365e-15
6.564422080949009e-15
9.696801786265467e-15
1.6714849451411842e-14
3.103293141016089e-14
5.789195392720912e-14
1.0475808567370024e-13
1.814614407169482e-13
2.9977893379341393e-13
4.720598606943371e-13
7.084255105060208e-13
1.0121176510845768e-12
1.3728436488253372e-12
1.7586487353102858e-12
2.1082002569249404e-12
2.3277773316207323e-12
2.3013503506483455e-12
1.9291793033034214e-12
1.2233931963588846e-12
5.156069729098212e-13
8.899831681092221e-13
5.086044645722406e-12
1.940351270972269e-11
5.7747915631289224e-11
1.501640764608852e-10
3.604688230028982e-10
8.215674142274814e-10
1.8035333660710232e-09
3.839340434921169e-09
7.946612915752903e-09
1.6000099926673764e-08
3.1325810281217974e-08
5.9597691229918954e-08
1.1011152464112098e-07
1.974758037066679e-07
3.436842235531865e-07
5.80415727994166e-07
9.512606457939779e-07
1.5134381012218708e-06
2.3385245093602986e-06
3.5118487659614376e-06
5.130605072206986e-06
7.301396450003612e-06
1.0138722899857905e-05
1.3766564015687194e-05
1.8325222977144556e-05
2.398452183088134e-05
3.0962001461141733e-05
3.954120354164008e-05
5.008129573269339e-05
6.300678346451211e-05
7.876662004505534e-05
9.775700866099906e-05
0.00012021163029151924
0.00014607513479481668
0.0001748869512679857
0.00020570844042440498
0.00023712353084871392
0.0002673301131968623
0.00029431893248269285
0.0003161140153927542
0.0003310308002315739
0.00033790110763075505
0.00033622058397613994
0.000326192495492565
0.0003086661108354149
0.0002849909555767006
0.00025682342449444637
0.00022592616663968536
0.00019399386142700557
0.00016252534898627028
0.00013274696949274934
0.0001055802410151851
8.164133118659726e-05
6.126009047877831e-05
4.451047337737588e-05
3.1248875303386686e-05
2.1159741626987454e-05
1.380779565140851e-05
8.69409630764701e-06
5.310602639252869e-06
3.186710073192619e-06
1.922187425437622e-06
1.2037789118137927e-06
8.062948243951835e-07
5.8197092216595e-07
4.4334223470425093e-07
3.4469073462711155e-07
2.6575133935500426e-07
1.9954035063086365e-07
1.4456643816932824e-07
1.0066215352696846e-07
6.727930560506761e-08
4.3158256346050993e-08
2.6576254464517872e-08
1.571096468580458e-08
8.914810334839428e-09
4.853500638237803e-09
2.5344568454312513e-09
1.2696764321718515e-09
6.112342873142345e-10
2.8410740024002487e-10
1.2881795170963247e-10
5.80545323383534e-11
2.6744420994949735e-11
1.2982122814949628e-11
6.750334368426245e-12
3.72505506397438e-12
2.121457396370384e-12
1.2104809922847983e-12
6.77314873835224e-13
3.6704100678617843e-13
1.9143401034308689e-13
9.583888940571027e-14
4.6017348491586316e-14
2.119370388615008e-14
9.369248031418855e-15
3.98112810593015e-15
1.6300899528621596e-15
6.464361174095261e-16
2.508793524563628e-16
9.716453866559136e-17
3.8693545063965023e-17
1.636972810984765e-17
7.521755795495788e-18
3.829091538039403e-18
2.2479485473277347e-18
1.4614355788197438e-18
1.4847811688411938e-18
5.597959285386525e-19
4.540309330182961e-19
1.0121340607631065e-18
1.5125431257896074e-18
1.7079742837366263e-18
2.7485337635787858e-18
6.716116606033582e-18
1.6007281126858877e-17
3.58330711637758e-17
8.274046224924945e-17
2.0310692920848734e-16
5.144827969530456e-16
1.3031286963045055e-15
3.2470761138146144e-15
7.902765621829298e-15
1.8742447963324536e-14
4.3363680874605426e-14
9.82353333250149e-14
2.1897979143462024e-13
4.827294132665089e-13
1.0565225317923749e-12
2.30059869819429e-12
4.983493136101963e-12
1.0714208141056465e-11
2.2770194313219362e-11
4.7589471814909594e-11
9.725550771881736e-11
1.9321795941631287e-10
3.710429276655095e-10
6.848747658909647e-10
1.2083076253053548e-09
2.0258188097176024e-09
3.207379524518073e-09
4.7620090302135456e-09
6.579968207891776e-09
8.40527597396109e-09
9.935139234086464e-09
1.121755013359369e-08
1.35963253498009e-08
2.1503870585836336e-08
4.5388658598663816e-08
1.0595653200943964e-07
2.396931205452977e-07
5.053343654902178e-07
9.90592113166262e-07
1.8180432697466665e-06
3.1486564170047724e-06
5.180960523400959e-06
8.14341197873854e-06
1.2277272299139018e-05
1.780763068820081e-05
2.490159690304288e-05
3.361562248705352e-05
4.383849456498247e-05
5.524213195295066e-05
6.725719452037933e-05
7.909207545836489e-05
8.980934410433288e-05
9.846168733276342e-05
0.00010427118042193865
0.00010681610935098473
0.00010617596356971854
0.00010298496904512201
9.836142245835914e-05
9.371164589271554e-05
9.044463311826527e-05
8.966374881847486e-05
9.191375267964917e-05
9.704960249161917e-05
0.00010426111630107001
0.00011224521294679978
0.00011947890511203304
0.000124523251380677
0.00012628673100479197
0.0001241941914886392
0.00011823698769193059
0.00010891112598085184
9.707434947799132e-05
8.376511614734936e-05
7.00257768791086e-05
5.676199859377495e-05
4.465546111404218e-05
3.4131924255753836e-05
2.5375408373357808e-05
1.8373062007919305e-05
1.2974163355936228e-05
8.949306924650167e-06
6.040386154105114e-06
3.996850989686398e-06
2.5977438281217172e-06
1.6616492710528206e-06
1.0479039979318895e-06
6.525071579289069e-07
4.015841720130654e-07
2.4439647726932585e-07
1.4705151376392082e-07
8.741055153980491e-08
5.126293294239527e-08
2.9608176558595285e-08
1.680497185114182e-08
9.348904405695978e-09
5.082234604700185e-09
2.6896988237183812e-09
1.379252836281684e-09
6.809208340320777e-10
3.207049267200813e-10
1.4212979774569103e-10
5.79543321934909e-11
2.0881235458125018e-11
6.1085001850358614e-12
1.1533372465172603e-12
5.976043895226304e-14
1.9175617192410587e-13
5.147172537059838e-13
7.103619502038853e-13
7.439202702458683e-13
6.675247452947311e-13
5.410013022270911e-13
4.070492296590128e-13
2.8890357805140784e-13
1.9534661048400637e-13
1.266071894705446e-13
7.891361973406035e-14
4.7340114954172194e-14
2.7279304235401942e-14
1.501756060305e-14
7.816906494977184e-15
3.7778230010647845e-15
1.6404750687871844e-15
5.991959325747315e-16
1.559577645182024e-16
1.43011722634983e-17
6.1752332031543576e-18
4.2809511643930076e-17
8.232808011728863e-17
1.0888030329694058e-16
1.1969130111860853e-16
1.175072306789037e-16
1.0659376692297943e-16
9.092559372052635e-17
7.359034458869764e-17
5.675892336000607e-17
4.18431725398353e-17
2.966133983148598e-17
2.0559745759026575e-17
1.4504271843473167e-17
1.117354527224268e-17
1.0075105125210216e-17
1.0683611973902653e-17
1.2580593157275981e-17
1.556800221202556e-17
1.973670752255793e-17
2.5493072809608274e-17
3.357377992132352e-17
4.5100001635684606e-17
6.172670051338017e-17
8.592439624131538e-17
1.213869945006505e-16
1.7349234999480765e-16
2.4965822070652377e-16
3.5934605848394915e-16
5.133874704303503e-16
7.222747810725175e-16
9.931176613396697e-16
1.3251941229549706e-15
1.7045115578927913e-15
2.0986579033811545e-15
2.4545917610180337e-15
2.704008925146618e-15
2.783583907997448e-15
2.680608150766391e-15
2.5178863459287013e-15
2.6941769845866078e-15
4.0960522402264855e-15
8.390737099342042e-15
1.8393021426867775e-14
3.846777629844854e-14
7.487865470655053e-14
1.359221876683455e-13
2.3160114976095975e-13
3.725116844129775e-13
5.675861828076544e-13
8.204182663601364e-13
1.1242023795977386e-12
1.4559880717638158e-12
1.7721423899426507e-12
2.008810724757137e-12
2.0939945639531183e-12
1.982139189293174e-12
1.7294630682718352e-12
1.6435531741005615e-12
2.5770870347200073e-12
6.524110624761612e-12
1.788518448864279e-11
4.622652454830774e-11
1.1230464388105611e-10
2.609512482127609e-10
5.876937009938909e-10
1.291489928823494e-09
2.7745241912162106e-09
5.822263883034633e-09
1.1912765415711338e-08
2.372177939264368e-08
4.590520073195202e-08
8.624520883551478e-08
1.5723042973335383e-07
2.780923149382861e-07
4.77232783157686e-07
7.948574177375293e-07
1.285500505225997e-06
2.0200450761578287e-06
3.086875027917764e-06
4.59201657647422e-06
6.6585570346410175e-06
9.426197739722024e-06
1.3052296489096534e-05
1.7715846894947643e-05
2.3625150563043958e-05
3.1028218411580985e-05
4.022229846139354e-05
5.15560050902535e-05
6.541548441157636e-05
8.218631597895148e-05
0.0001021865601426733
0.00012557369749757304
0.0001522379031341835
0.00018170342251118686
0.0002130652431790776
0.00024498671528076787
0.00027577403522860406
0.00030352710097433783
0.00032634737240537666
0.0003425676631411855
0.0003509613452864914
0.0003508918859712241
0.0003423770481334194
0.00032606135543834195
0.0003031097404694644
0.0002750492876658
0.00024359148990563825
0.00021046434174693015
0.000177274448217065
0.00014540809660336742
0.00011597070354223131
8.975853703092104e-05
6.725543813778299e-05
4.86490181840421e-05
3.386325803987285e-05
2.26056601211915e-05
1.442630300952417e-05
8.78386501725638e-06
5.111348598095943e-06
2.873341238512223e-06
1.607962183675528e-06
9.498855832681209e-07
6.348792427649593e-07
4.897862854980297e-07
4.1380773242737397e-07
3.5703707047747823e-07
3.0085521650741733e-07
2.4278690260384635e-07
1.8650634247971315e-07
1.3634336580064862e-07
9.5014320069133e-08
6.32536840487047e-08
4.030611717878242e-08
2.462260290341068e-08
1.4438578271357375e-08
8.13640275632197e-09
4.411953647014222e-09
2.306733969964162e-09
1.166923739702297e-09
5.745910211242636e-10
2.780561300502025e-10
1.3410349808544763e-10
6.557478867394485e-11
3.3030704206291775e-11
1.727435639785335e-11
9.339847431822442e-12
5.148170754356545e-12
2.843584036948039e-12
1.5503394954530915e-12
8.252156398463472e-13
4.257538272619451e-13
2.1194521292160948e-13
1.015023780007499e-13
4.6664530910499696e-14
2.0558145688428463e-14
8.665431774933359e-15
3.491136576716913e-15
1.3455158956971165e-15
4.991724973580205e-16
1.816865009674056e-16
6.778660317728829e-17
2.7873878662414544e-17
1.34675481439285e-17
7.62061596928212e-18
4.732359210469365e-18
2.9005152793172474e-18
4.044182116995419e-18
2.4282317663090354e-18
1.8161329783716014e-18
1.6224401158551045e-18
1.08158067615799e-18
3.204084869714571e-19
4.163687234204226e-19
2.092491006659662e-18
5.062692477013673e-18
1.0011889294000316e-17
2.294415154191743e-17
6.211847914191506e-17
1.7463806662229752e-16
4.817539628862294e-16
1.2893048483390455e-15
3.3342921427133415e-15
8.320912316138017e-15
2.0090675441845153e-14
4.720397096696103e-14
1.0868521656838006e-13
2.4685210571345787e-13
5.558157062447354e-13
1.243788925218398e-12
2.765660667362862e-12
6.094573912895945e-12
1.3251672923555594e-11
2.8277584490448558e-11
5.887860469575865e-11
1.1893330957937766e-10
2.3173518673339642e-10
4.330203874121032e-10
7.712475212032115e-10
1.3003513096132794e-09
2.0583251222369305e-09
3.0263012221849366e-09
4.0723866164724904e-09
4.90912682851541e-09
5.138803096399921e-09
4.52664106416291e-09
3.7172382601232648e-09
5.670019544469067e-09
1.8102996872079416e-08
5.7171075185829185e-08
1.5245059444317918e-07
3.530581342057859e-07
7.344077222080721e-07
1.4047035227818624e-06
2.50975357902705e-06
4.23406199540999e-06
6.7954768406024135e-06
1.0430167421428156e-05
1.5364822411178215e-05
2.1774312326211486e-05
2.9726219090496826e-05
3.9118762768835447e-05
4.9625051528464973e-05
6.06623779352943e-05
7.140758635440251e-05
8.08752537211029e-05
8.806277193511527e-05
9.214654792091591e-05
9.269141268152677e-05
8.981894358488403e-05
8.427807087265216e-05
7.737791149786278e-05
7.077648387078372e-05
6.616073111251901e-05
6.488936431857332e-05
6.768715691529761e-05
7.447016476707506e-05
8.434782600525433e-05
9.580061986879429e-05
0.0001069861626391655
0.00011609636419730222
0.00012168153161447406
0.00012287376135999736
0.00011947408921147495
0.0001119044561098828
0.00010105590118496617
8.808157501597193e-05
7.418535482219046e-05
6.044674623274191e-05
4.770575684013393e-05
3.651338723422916e-05
2.7138893656920972e-05
1.9616450824541313e-05
1.3811511984682776e-05
9.489661473625501e-06
6.375976027247653e-06
4.198785668200778e-06
2.716734650356911e-06
1.7314115896595825e-06
1.0894392202847747e-06
6.781283353056318e-07
4.18136983883697e-07
2.5554713699348523e-07
1.5475289599319544e-07
9.275340895419541e-08
5.492227953772147e-08
3.205311136610536e-08
1.8386778516151034e-08
1.033552047337996e-08
5.673843086259413e-09
3.0299896533481745e-09
1.566564394618965e-09
7.79276902839881e-10
3.6974484875980506e-10
1.6518748143934043e-10
6.807537336235418e-11
2.4973576276296915e-11
7.616767972215277e-12
1.6769936242720548e-12
2.749282881383732e-13
3.4551984036346364e-13
6.736013417371586e-13
8.762091395315976e-13
9.028168059343543e-13
8.073482609209134e-13
6.556083475806551e-13
4.955844921328e-13
3.538818476813525e-13
2.4087932057344493e-13
1.5715379140071708e-13
9.855263258207671e-14
5.943503435205937e-14
3.440188056812522e-14
1.9015502316695348e-14
9.945795873907519e-15
4.846687097384395e-15
2.143392628875824e-15
8.21181990741451e-16
2.5116099842326327e-16
5.974284987066934e-17
3.631612274491947e-17
7.039007978921354e-17
1.1011989821479462e-16
1.3584262241645643e-16
1.4391905238159176e-16
1.3746331929212662e-16
1.2148634566092963e-16
1.0069164565643117e-16
7.872012417944888e-17
5.807860650436595e-17
4.031537918430748e-17
2.6232800889326592e-17
1.6065901740475932e-17
9.626252360996561e-18
6.433222732129692e-18
5.8494138677620716e-18
7.219972239736108e-18
9.999794096338385e-18
1.3847313534513677e-17
1.8672375099094424e-17
2.4646302370670877e-17
3.220702174142864e-17
4.211036787813638e-17
5.558025621285398e-17
7.458842192971667e-17
1.0224714457912373e-16
1.4322944974974834e-16
2.0404946445829294e-16
2.9295496725032794e-16
4.1912537061910234e-16
5.908607845538349e-16
8.125317335322311e-16
1.08028727312295e-15
1.3769576542952132e-15
1.6673157512294025e-15
1.8959702058557333e-15
1.9917449118333615e-15
1.8845149030305423e-15
1.5430705024305977e-15
1.0453691213197931e-15
6.947288777922199e-16
1.1955831210597193e-15
3.897805554658746e-15
1.1105740989364446e-14
2.6422746573874054e-14
5.506076342778612e-14
1.0398690062741676e-13
1.8171213470608168e-13
2.974706209420866e-13
4.595303895113446e-13
6.724801886452051e-13
9.336403211713475e-13
1.2293490151473837e-12
1.5328690233434021e-12
1.8070788012938094e-12
2.01693088367995e-12
2.1589222392158355e-12
2.3182419009492187e-12
2.771912269360455e-12
4.177482310563317e-12
7.945315168349844e-12
1.704078175871833e-11
3.780613617120428e-11
8.412389396382054e-11
1.8668976650620942e-10
4.1282452198517185e-10
9.068237834244985e-10
1.968153936475722e-09
4.1956276237492045e-09
8.740350207279398e-09
1.7727912614659848e-08
3.492822566454323e-08
6.676397170578519e-08
1.2374733324518138e-07
2.224091013260853e-07
3.87725738077809e-07
6.559572094651041e-07
1.0776948568765712e-06
1.7208178242774977e-06
2.6730208042074737e-06
4.0436617655835625e-06
5.964917461736511e-06
8.592593403570114e-06
1.2107280609490482e-05
1.6716648309856222e-05
2.2659227284087236e-05
3.0208867548674226e-05
3.9677188993559795e-05
5.1409221172340135e-05
6.576590639346682e-05
8.308731501804077e-05
0.00010363322312621278
0.00012750336671991366
0.00015454732870345426
0.00018428156395570067
0.00021583573603759437
0.0002479497781000534
0.00027903571663147575
0.0003073052916960809
0.0003309489481034095
0.0003483383339683769
0.00035821725126808867
0.0003598474486145048
0.0003530853569468889
0.00033838084602311305
0.0003167048423429789
0.00028942487271306017
0.00025815355840578196
0.00022459436585617047
0.00019040320059825024
0.00015707656992557437
0.0001258698892162562
9.774492539555702e-05
7.334375009950401e-05
5.2986984283806875e-05
3.669494573742586e-05
2.4230121774891986e-05
1.5157602838310738e-05
8.917246246674057e-06
4.898692314941424e-06
2.509316968786963e-06
1.2265428935027216e-06
6.294153926802096e-07
4.088819368929416e-07
3.603567290041063e-07
3.6474735736536864e-07
3.6471026191082176e-07
3.4177006335810413e-07
2.978471592333717e-07
2.4253668577306997e-07
1.8578722750241717e-07
1.3469306569165174e-07
9.287507040768723e-08
6.114397649775986e-08
3.855088455686301e-08
2.3336687356223966e-08
1.3594880565662264e-08
7.640451128131494e-09
4.155369615349995e-09
2.1962592271408536e-09
1.1348087393800287e-09
5.77879652449853e-10
2.929603739478078e-10
1.494698672691911e-10
7.744951902146517e-11
4.093273762925444e-11
2.201771865941037e-11
1.1961399561672182e-11
6.494717639710343e-12
3.4879628264784682e-12
1.8364047401053e-12
9.413332340353518e-13
4.672851593001904e-13
2.2366802731448482e-13
1.0282522565971843e-13
4.52159090957088e-14
1.8928842390696627e-14
7.501072666057733e-15
2.795605123146008e-15
9.74869710208888e-16
3.197608199377321e-16
1.0334995525083012e-16
3.817958222026963e-17
1.9535727857880534e-17
1.319434326339025e-17
9.564637434529717e-18
6.5491813841987385e-18
1.1402780760346013e-17
7.732364650903505e-18
5.284875258954603e-18
3.4091539144567004e-18
1.6096811467232001e-18
3.4679149563887047e-19
3.4017925798798935e-19
1.2450781503291765e-18
1.854745011083129e-18
2.138084576855279e-18
5.0699841161767674e-18
1.7910360204334124e-17
5.828222238289356e-17
1.760938848269682e-16
5.082605615773457e-16
1.3990986538435002e-15
3.663571841523369e-15
9.174789034874876e-15
2.219494489927773e-14
5.242605421637868e-14
1.2205842209300449e-13
2.8201055625450486e-13
6.486985624025353e-13
1.4847433934270843e-12
3.3688583394306372e-12
7.535556083037181e-12
1.651352007583163e-11
3.523585436683438e-11
7.27817893292204e-11
1.4471645575988644e-10
2.7541805074747154e-10
4.985856788528061e-10
8.52267261717453e-10
1.3628856171738818e-09
2.0129466870587105e-09
2.693515097111999e-09
3.1610876546859703e-09
3.054955200101508e-09
2.087072866431111e-09
5.844582696021318e-10
6.255217506327258e-10
8.039885451996162e-09
3.5510844054453024e-08
1.0691636238756068e-07
2.6286620293898214e-07
5.671360633829542e-07
1.1133389833847506e-06
2.030655103046501e-06
3.486712703824017e-06
5.6848148400767215e-06
8.851876317146329e-06
1.3213192178891892e-05
1.8951250467392793e-05
2.614897304221509e-05
3.4723321323748025e-05
4.436247194634856e-05
5.448674174026945e-05
6.425689519395938e-05
7.26498476146981e-05
7.86088311336793e-05
8.125369543188088e-05
8.011224233733586e-05
7.531393386974189e-05
6.76823145818988e-05
5.867807696502396e-05
5.017996198119174e-05
4.4136623685285565e-05
4.2164499993451615e-05
4.518956069652092e-05
5.3225197900677514e-05
6.534489927041715e-05
7.985701950216711e-05
9.463628893499872e-05
0.00010752890968357062
0.00011673556944210553
0.00012109088343115261
0.00012019163089238459
0.00011436761632816468
0.00010452557649737744
9.191934818900752e-05
7.790518962824723e-05
6.373182474358098e-05
5.039617287852064e-05
3.857466335409243e-05
2.8622250942524117e-05
2.062009618787769e-05
1.4449073930767592e-05
9.868488409269506e-06
6.5851923125166835e-06
4.305217009795187e-06
2.766094016621031e-06
1.7522370036104056e-06
1.0978469757236414e-06
6.82166584103468e-07
4.211710939357139e-07
2.585702818784108e-07
1.5777636281506723e-07
9.552978860365749e-08
5.724961278807874e-08
3.385340458328195e-08
1.968643646763256e-08
1.1219106605682184e-08
6.243519173063658e-09
3.3802045034904004e-09
1.7727839522616774e-09
8.960675674216314e-10
4.3363942673222657e-10
1.991380961192234e-10
8.57310923081596e-11
3.406481371677174e-11
1.2333825770618447e-11
4.203357585614903e-12
1.7095249280508967e-12
1.2258342212432593e-12
1.2575945598740454e-12
1.287508205993127e-12
1.2024908462015456e-12
1.0280558796848089e-12
8.1721692402047e-13
6.119944904515684e-13
4.3583828156644107e-13
2.970521750641576e-13
1.9454331536570823e-13
1.226836633918147e-13
7.452226441664677e-14
4.353764966174291e-14
2.4377209340795828e-14
1.3003229251778806e-14
6.550245718735615e-15
3.081280267756117e-15
1.3414577497383537e-15