# vtk DataFile Version 4.1 
COMMENT
ASCII
DATASET STRUCTURED_POINTS 
DIMENSIONS 300 300 1 
ORIGIN 0 0 0
SPACING 0.020943951023931952 0.020943951023931952 0 
POINT_DATA 90000
SCALARS U double 1
LOOKUP_TABLE default
2.4238841766622425e-21
3.0414698282663273e-22
5.257139244421677e-22
3.2817992615367988e-21
8.822339643398592e-21
1.9310707946249873e-20
4.1763148740037834e-20
9.229713993191468e-20
2.0421368485380625e-19
4.453728651957079e-19
9.53904550861957e-19
2.0071174058075537e-18
4.1491460925248804e-18
8.420801476587071e-18
1.6761580816158145e-17
3.26886724564567e-17
6.23981472883754e-17
1.16470644485359e-16
2.1237876734707023e-16
3.779536223959351e-16
6.558289462389919e-16
1.108596441980389e-15
1.823947471364132e-15
2.9184671023042343e-15
4.538098641181246e-15
6.8528400538972225e-15
1.0043301925294525e-14
1.4277684478174703e-14
1.967965415135538e-14
2.629027214437534e-14
3.402996960468616e-14
4.266897666700312e-14
5.181608293360377e-14
6.093508772279937e-14
6.939359562784953e-14
7.653831880229458e-14
8.177845008633217e-14
8.465504740721105e-14
8.488904201019083e-14
8.242352297897301e-14
7.747547388726647e-14
7.056756250199805e-14
6.245879452290037e-14
5.391934892178643e-14
4.543731209260564e-14
3.709526375283527e-14
2.881161931108617e-14
2.0834304514755608e-14
1.4034929381567481e-14
9.571922805476583e-15
8.0061711172927e-15
8.576776766007177e-15
9.441098711413495e-15
9.00647164518115e-15
7.537960096486377e-15
7.895723678659626e-15
1.4956969341579448e-14
3.4514412764428965e-14
7.32142700905709e-14
1.4080551493749477e-13
2.5496138981292265e-13
4.481560851421218e-13
7.762516398748715e-13
1.3294876113464914e-12
2.2477379255762657e-12
3.742460206136199e-12
6.127451511683808e-12
9.85955326519707e-12
1.5589108229347573e-11
2.4218259293343443e-11
3.6962740293415134e-11
5.54092091347241e-11
8.155529085585313e-11
1.1781384698086298e-10
1.669578905959882e-10
2.3198015287031955e-10
3.1584427155927543e-10
4.2111558886332174e-10
5.494802595794958e-10
7.011910989271099e-10
8.745131675347198e-10
1.0652734547685749e-09
1.2666363361661952e-09
1.469218881244482e-09
1.6616207230254708e-09
1.8313732431171096e-09
1.9662236892366934e-09
2.055582053216205e-09
2.091896792077442e-09
2.071710994485329e-09
1.9961933683343935e-09
1.871032429558583e-09
1.7057059458252158e-09
1.5122599537996693e-09
1.3038215239014165e-09
1.0931056179581157e-09
8.911534782851303e-10
7.064690495209855e-10
5.446236193570548e-10
4.083034101868267e-10
2.9770204628709973e-10
2.11121649625919e-10
1.4564362166728121e-10
9.775490689135383e-11
6.385512114884339e-11
4.0611759273565725e-11
2.5165402624649356e-11
1.5209665795733224e-11
8.981063292047587e-12
5.194456280453302e-12
2.953931323932023e-12
1.6604517452445696e-12
9.291073996317408e-13
5.218378258524263e-13
2.966891063921403e-13
1.718791236027358e-13
1.0173608687940326e-13
6.140007630165018e-14
3.756229434246743e-14
2.311770633044222e-14
1.4213785891262337e-14
8.688132564682747e-15
5.269131600366817e-15
3.1746210313753633e-15
1.9085952715558605e-15
1.153137963187354e-15
7.05970339484992e-16
4.4098966254609113e-16
2.8178454448697406e-16
1.8351328230840844e-16
1.2066706209162878e-16
7.907650747410427e-17
5.091899872547963e-17
3.176158199005302e-17
1.8914235192713857e-17
1.0577126719310655e-17
5.435557632029939e-18
2.4848256906026906e-18
9.580677492441161e-19
2.902884128691184e-19
8.882829058439691e-20
1.0116434634121358e-19
1.8064668026559122e-19
2.538574258412998e-19
2.929348539060885e-19
2.9462500199567734e-19
2.6626897109600315e-19
2.1793085592656614e-19
1.5945491080037016e-19
1.012202358659509e-19
5.752209069913856e-20
5.1715115253304764e-20
1.2245801561908841e-19
3.305973582960916e-19
7.664052436006141e-19
1.5569882244341151e-18
2.873626610246696e-18
4.938496498917513e-18
8.029623426794507e-18
1.2482048008158652e-17
1.8682195849165246e-17
2.7051619535500612e-17
3.801604033690628e-17
5.195647116645065e-17
6.914162548187177e-17
8.964504357897696e-17
1.1325613638917515e-16
1.3940068347050794e-16
1.670914924038247e-16
1.9493168532246032e-16
2.2118926761353844e-16
2.439510569290523e-16
2.6134735892291267e-16
2.718189881644418e-16
2.7438049509971975e-16
2.6882385447840334e-16
2.5581044877466726e-16
2.3681784635007777e-16
2.1393902160236966e-16
1.895683498050737e-16
1.6604151786747173e-16
1.4531623658915295e-16
1.2878019822129655e-16
1.172465386691579e-16
1.1113904867360355e-16
1.1077440552678154e-16
1.1652830454044472e-16
1.286013162793941e-16
1.463336431574074e-16
1.6835240343428147e-16
1.9998888328240657e-16
2.933722867279454e-16
7.148627066740999e-16
2.579719613974499e-15
1.0118914447727814e-14
3.8359916163779656e-14
1.3783266377933478e-13
4.700796842660181e-13
1.527368627788555e-12
4.742783848587771e-12
1.4110717903342914e-11
4.0312444097677244e-11
1.107991505749659e-10
2.93476289360941e-10
7.502113431719472e-10
1.8531470634225471e-09
4.427998833378813e-09
1.0243673015865331e-08
2.295977806201784e-08
4.988852409818884e-08
1.051392931052429e-07
2.1499701391690628e-07
4.2671908786365255e-07
8.222548704322468e-07
1.538564504686864e-06
2.7960264298478284e-06
4.935588289963057e-06
8.463525823780337e-06
1.4099709161123518e-05
2.2821174604312644e-05
3.5888056313906045e-05
5.483464710513169e-05
8.1406238098958e-05
0.00011742448403379562
0.000164572166263796
0.00022410311319774346
0.00029650347977235877
0.00038115291098933605
0.00047605240864165006
0.0005776930552451963
0.0006811302840196744
0.0007802998085498838
0.0008685667311930452
0.0009394475810749171
0.0009873989850316834
0.0010085397382724836
0.0010011747516790231
0.0009660218133097233
0.0009060986480369973
0.0008262945685437833
0.0007327112270028864
0.0006318958969063567
0.000530100155855363
0.0004326771599432187
0.00034368991342694237
0.0002657535045758493
0.00020008893698231515
0.00014673435308528387
0.00010484528317163006
7.30179793338957e-05
4.958413004985605e-05
3.284502682530256e-05
2.1232833726492266e-05
1.340207470540068e-05
8.264087738991449e-06
4.981158565149112e-06
2.936667524397981e-06
1.6946073549647613e-06
9.578562235177807e-07
5.307655330858013e-07
2.8857445864318237e-07
1.5408983970515802e-07
8.088784834800118e-08
4.1786672243765193e-08
2.1266847336918504e-08
1.0674561985597529e-08
5.289863815261449e-09
2.5908121845951557e-09
1.2552952157616459e-09
6.022222956700309e-10
2.862881374322294e-10
1.3494787722264654e-10
6.310580195538459e-11
2.928751936055382e-11
1.3493527841710625e-11
6.172697145067573e-12
2.803974040814255e-12
1.2648549010522677e-12
5.666002121033117e-13
2.520427182480684e-13
1.1133223642817337e-13
4.883201130388726e-14
2.1267408136770255e-14
9.196934219543553e-15
3.948986423985594e-15
1.6836068177579135e-15
7.127033444502706e-16
2.995651558616491e-16
1.2502253257621076e-16
5.180837607726433e-17
2.131763476525665e-17
8.710730499935573e-18
3.535229913568525e-18
1.4246987203716683e-18
5.691564726378586e-19
2.2468424458789484e-19
8.784766929563421e-20
3.4941986309836215e-20
1.4916134349450503e-20
6.68641504035855e-21
8.790194615221587e-21
1.9687263849609106e-21
1.8799520461950937e-21
4.822674086472267e-21
8.71979089002444e-21
1.534583057427217e-20
3.222938538790836e-20
7.481515497060252e-20
1.7299890103521228e-19
3.886405575867482e-19
8.531753064068423e-19
1.8406626356170044e-18
3.9056435396136486e-18
8.139764561184739e-18
1.6638025943567122e-17
3.3316531733354176e-17
6.528916270584614e-17
1.250839140650698e-16
2.3403833449478267e-16
4.2721195533902026e-16
7.600209717137803e-16
1.316449738411655e-15
2.218048714119448e-15
3.631974250734448e-15
5.775177550182446e-15
8.91081877892989e-15
1.3332582570092785e-14
1.933341251758643e-14
2.715771674309937e-14
3.694031000690292e-14
4.864059422331669e-14
6.198550612687559e-14
7.64379055710527e-14
9.120624674703574e-14
1.0530447170782347e-13
1.1765793737364417e-13
1.2723657711686973e-13
1.331896874051174e-13
1.3496338562505618e-13
1.3239309674061236e-13
1.257593370980163e-13
1.1577050143075244e-13
1.034256665307893e-13
8.976425706580895e-14
7.56211757777457e-14
6.156920921938129e-14
4.812079699692311e-14
3.6004553334998384e-14
2.6164218635513398e-14
1.929897323892217e-14
1.5226191087139563e-14
1.2686781143187733e-14
1.0006019893676717e-14
6.320250298225991e-15
2.479665788562653e-15
8.668250552595712e-16
4.244133887351932e-15
1.466846545190805e-14
3.36947174363305e-14
6.438107914093756e-14
1.1464960649239443e-13
2.0120714431773302e-13
3.5383113314225443e-13
6.209546042404911e-13
1.078393382402178e-12
1.843283722010719e-12
3.0949348675753504e-12
5.10375699699789e-12
8.26896193801729e-12
1.3165185919686086e-11
2.0597024484910642e-11
3.165810773889e-11
4.778742934341402e-11
7.081028087393442e-11
1.0294504539438547e-10
1.4675172113026985e-10
2.0499563108308622e-10
2.8040318915495e-10
3.752986485612918e-10
4.911330246540828e-10
6.279477092139095e-10
7.838505988988585e-10
9.54612701119292e-10
1.1335065155305322e-09
1.3114932795369244e-09
1.4778190335111923e-09
1.6210033075319432e-09
1.7301136781829613e-09
1.7961374013710012e-09
1.8132127088059682e-09
1.7794857338706097e-09
1.6974193137419156e-09
1.5734851668133466e-09
1.4172950910280746e-09
1.240337574983265e-09
1.054555347610607e-09
8.710115703866969e-10
6.98849169325839e-10
5.446658018534899e-10
4.1233112628177903e-10
3.0318824830826745e-10
2.1652506479055377e-10
1.5018046343346705e-10
1.0116132689770343e-10
6.617846820962363e-11
4.205014480915438e-11
2.595956043848794e-11
1.558075640368325e-11
9.103058108220079e-12
5.1889325928342455e-12
2.896912379788963e-12
1.5938338894742753e-12
8.721411988264932e-13
4.804752341077654e-13
2.7018257347051163e-13
1.5688872216623353e-13
9.455265072751951e-14
5.892803271406066e-14
3.758946356164745e-14
2.4239616061048742e-14
1.5635430469740485e-14
1.0018959429113141e-14
6.358708338607473e-15
3.9988871156532576e-15
2.4996657946641936e-15
1.5605793240601927e-15
9.781734937228853e-16
6.180291461694905e-16
3.940811616777002e-16
2.529573495587888e-16
1.6245529318482762e-16
1.0348018459553299e-16
6.471824366255377e-17
3.931969989623868e-17
2.2952561233913622e-17
1.2725023614759842e-17
6.617665798542485e-18
3.1904221456649145e-18
1.4237485389773656e-18
6.185090378050244e-19
3.197625583614339e-19
2.5208619274878526e-19
2.6434561613344444e-19
2.849308132365789e-19
2.8815750459856414e-19
2.712188269349791e-19
2.400222751191713e-19
2.0185695450494075e-19
1.6298890464174634e-19
1.2968314540461914e-19
1.1155433683740016e-19
1.26447177455213e-19
2.0625572707452564e-19
4.0326491042562383e-19
7.967672009504797e-19
1.4998410039560979e-18
2.666190263712722e-18
4.4967379511682035e-18
7.245170575232492e-18
1.1220849690322828e-17
1.678654717101103e-17
2.4347558882475374e-17
3.4328272718334615e-17
4.713267474466211e-17
6.308703379962894e-17
8.23664024743055e-17
1.0491151236451851e-16
1.3034843001512877e-16
1.5792860337728966e-16
1.8650975921695573e-16
2.1459651025775447e-16
2.4045210741623925e-16
2.622795345182591e-16
2.784530671399467e-16
2.8776447149473492e-16
2.896364045734957e-16
2.842542322738685e-16
2.72579252759689e-16
2.562304567683127e-16
2.3725368414243245e-16
2.178283753208985e-16
1.999837814863549e-16
1.8539993635489873e-16
1.7534788537516496e-16
1.7077792222472372e-16
1.7250620497092528e-16
1.8142267752581484e-16
1.9875706110416919e-16
2.2694739516503364e-16
2.731998280956824e-16
3.6247352943384232e-16
5.819547676748036e-16
1.232761853583086e-15
3.3511788601205616e-15
1.0481290870522845e-14
3.452454662403228e-14
1.1425312480822552e-13
3.712723028635228e-13
1.1715851295060875e-12
3.571814776304932e-12
1.0500552514123666e-11
2.9761649786338594e-11
8.137609268361703e-11
2.1485715984094047e-10
5.483575007829699e-10
1.3541286932969127e-09
3.2382475311490416e-09
7.504658712885939e-09
1.68650441978534e-08
3.677042188157575e-08
7.78115828923526e-08
1.5987171001873274e-07
3.190073711497708e-07
6.183421345636245e-07
1.1644860764224167e-06
2.130980479812977e-06
3.7897741213796103e-06
6.550486648608596e-06
1.1004959812989719e-05
1.7971256880421507e-05
2.8527096701912733e-05
4.401844938004234e-05
6.602598747520991e-05
9.62720341952931e-05
0.00013645538207285112
0.00018801207008302683
0.00025181670850845365
0.00032785899696232914
0.0004149492775876604
0.0005105193568908763
0.0006105844539652428
0.000709915096555951
0.0008024342598795744
0.0008818103258302811
0.0009421704104421275
0.0009788233850766838
0.0009888682852502244
0.0009715775544785542
0.0009284841613171295
0.0008631581274141651
0.00078071755590295
0.0006871672188855088
0.0005886831211085457
0.0004909598461505548
0.00039871197854437064
0.0003153803380006937
0.00024304958521698128
0.00018254641446286912
0.0001336638565455544
9.544927819238783e-05
6.649936597462944e-05
4.5219971862865516e-05
3.0026687368190873e-05
1.9478761050613584e-05
1.2351560556653259e-05
7.660155457284725e-06
4.649191765388136e-06
2.763323753636191e-06
1.609582128984411e-06
9.195109014480452e-07
5.156091347562102e-07
2.8404218745694943e-07
1.5386524182769263e-07
8.203608345976438e-08
4.309196030793677e-08
2.232218940931651e-08
1.1414129203130536e-08
5.766545087251313e-09
2.8809340041258796e-09
1.4244316575474454e-09
6.975062550029776e-10
3.3846773305256715e-10
1.6284284778802873e-10
7.771015203112089e-11
3.679415966297481e-11
1.7289026190364757e-11
8.063459132031344e-12
3.7331634241179066e-12
1.7157977152781452e-12
7.82899634174455e-13
3.546563377420013e-13
1.5950648162702417e-13
7.122364778785398e-14
3.157562793672938e-14
1.389854598425294e-14
6.0741459040443954e-15
2.635781449647538e-15
1.135670157667278e-15
4.858747334850931e-16
2.0641354008387291e-16
8.707862404517848e-17
3.6480913530446284e-17
1.5177381332869605e-17
6.269113504161396e-18
2.5697248477590944e-18
1.0455247933260592e-18
4.2379830201603863e-19
1.7262410410800707e-19
7.063924539755299e-20
2.7572700081798947e-20
4.9137454372982116e-20
1.9986752256531366e-20
1.2328449697546664e-20
1.0331802781383704e-20
8.277959596910882e-21
9.135193971804918e-21
2.17676080943536e-20
5.933425156747333e-20
1.4521717730270998e-19
3.32559078801378e-19
7.439098386370962e-19
1.64540759453931e-18
3.5896104308341e-18
7.693679524675448e-18
1.6167284672659546e-17
3.3274062952709066e-17
6.700971121698043e-17
1.319075288230926e-16
2.5351402716543834e-16
4.751530222810789e-16
8.67512694378437e-16
1.5412018617879624e-15
2.661571573901027e-15
4.463685717801791e-15
7.263423614675919e-15
1.1458690392886049e-14
1.751336030235742e-14
2.5916935672668574e-14
3.711597853739069e-14
5.141960636395187e-14
6.889010481541816e-14
8.923903942743859e-14
1.1175600426474276e-13
1.3529762765384532e-13
1.5835577410677373e-13
1.792062857259203e-13
1.9611851522141324e-13
2.0759037018808693e-13
2.125693394449123e-13
2.106225563979626e-13
2.0201840650647084e-13
1.8768085819410482e-13
1.6899968344190332e-13
1.4754515884229035e-13
1.2481349312243522e-13
1.0213270033923622e-13
8.073089250175108e-14
6.178865365436144e-14
4.6259173378420824e-14
3.446123310513159e-14
2.5778901828630123e-14
1.8887217839392102e-14
1.2564751125654394e-14
6.590659229750991e-15
1.99438976059941e-15
3.539893576283986e-16
2.6462193565836493e-15
8.647575000477334e-15
1.760111147368891e-14
3.0019995102340454e-14
4.9830399618693414e-14
8.616150765775626e-14
1.5492120516407276e-13
2.8124974820520977e-13
5.044149059557174e-13
8.865729174396355e-13
1.526430566132746e-12
2.5786624172183126e-12
4.2801069075095825e-12
6.983992481715702e-12
1.1203177279948723e-11
1.7662074698315397e-11
2.7354208099174465e-11
4.1598055216239926e-11
6.207819190337718e-11
9.085243429485195e-11
1.3030021527531947e-10
1.8298526627094076e-10
2.5140994216708784e-10
3.3765217364456224e-10
4.429003791831916e-10
5.66934781429928e-10
7.076391491055662e-10
8.606546374541512e-10
1.019294889566364e-09
1.1748188587544213e-09
1.3171018416361284e-09
1.43566334957354e-09
1.5209207897070463e-09
1.5654652800110915e-09
1.565124208870785e-09
1.5195987694619106e-09
1.4325422880663189e-09
1.3110586160061791e-09
1.1647194596114447e-09
1.0042935153871806e-09
8.404251416328644e-10
6.824878956894423e-10
5.377772690425505e-10
4.111184830278721e-10
3.048748790584297e-10
2.192720906010368e-10
1.5291524350704393e-10
1.0337231103962762e-10
6.771899244831765e-11
4.2977048107373205e-11
2.641678670545515e-11
1.5726384967244754e-11
9.071437014966017e-12
5.077217144331282e-12
2.7659980467436115e-12
1.4759480904769955e-12
7.800361922323902e-13
4.155046603908475e-13
2.2822781636817536e-13
1.3210807963752028e-13
8.139530315982085e-14
5.29723307338556e-14
3.5697192008550756e-14
2.4382389647439913e-14
1.6614249502773256e-14
1.1192917807963719e-14
7.429819901815124e-15
4.861270785095176e-15
3.143630638942725e-15
2.01690235498006e-15
1.288782156072737e-15
8.224885388577752e-16
5.246936568350692e-16
3.340566518332957e-16
2.1142468934663385e-16
1.3225034501689295e-16
8.119892189553851e-17
4.857894301264159e-17
2.811920716521667e-17
1.565000986657195e-17
8.342995202285333e-18
4.270850481467545e-18
2.138506579670322e-18
1.1031740055678783e-18
6.42479980470295e-19
4.532843515383703e-19
3.74470925037476e-19
3.3048866777196925e-19
2.926421443912141e-19
2.5457841796663813e-19
2.182468704544918e-19
1.8705078279193823e-19
1.6371681782027792e-19
1.5122911311664046e-19
1.5578038764361792e-19
1.910424276877403e-19
2.83243844438183e-19
4.766856597371364e-19
8.394924945968606e-19
1.469568701085816e-18
2.5008139511501813e-18
4.109536627561692e-18
6.520598188236621e-18
1.001210939951428e-17
1.4916561437972597e-17
2.161531107846184e-17
3.052267037433333e-17
4.205589228623489e-17
5.658852760903123e-17
7.43872709162055e-17
9.553653068036897e-17
1.1986008810948668e-16
1.4685430666731782e-16
1.7565086367711775e-16
2.0502713219232995e-16
2.3347770722164897e-16
2.5935069258567916e-16
2.8103834318954157e-16
2.9719634532032737e-16
3.0695362061016047e-16
3.10069557976984e-16
3.0700130562359817e-16
2.988608121835219e-16
2.8726679036202766e-16
2.7412445939894986e-16
2.6138756440435266e-16
2.5086476532104536e-16
2.4412146400697967e-16
2.425023450861983e-16
2.4728000621701955e-16
2.599714513333928e-16
2.8305540366365404e-16
3.2185665050582873e-16
3.896937371080605e-16
5.220579509385952e-16
8.17483788113289e-16
1.5642780703622613e-15
3.655198581816186e-15
9.959941289628013e-15
2.9770178976822896e-14
9.26576774039499e-14
2.898467924192053e-13
8.924790635905627e-13
2.675843466483645e-12
7.77351592320197e-12
2.1842869078299477e-11
5.935478695975963e-11
1.560517685939939e-10
3.9724768106208326e-10
9.798396256619834e-10
2.343372633314358e-09
5.437148698488535e-09
1.2244879467595763e-08
2.677718716620338e-08
5.687815732425758e-08
1.1738527992987302e-07
2.354320104035303e-07
4.5896499552397833e-07
8.697997354072308e-07
1.6026379896971585e-06
2.8712307099191595e-06
5.0020516060764565e-06
8.474204169934117e-06
1.3961665974857934e-05
2.237045545706712e-05
3.485934835083716e-05
5.2829323662910396e-05
7.786539990709339e-05
0.00011161658265908908
0.00015560669204907012
0.00021098137670735653
0.00027821358712655774
0.00035680817453959265
0.00044506136710679495
0.0005399371500356654
0.0006371153932921538
0.0007312440074045708
0.0008163917048991992
0.0008866558183772625
0.0009368410477557543
0.0009631005873851808
0.0009634287865877217
0.0009379168441962468
0.0008887258540441372
0.0008197848361304906
0.0007362722871425453
0.0006439762139800396
0.000548641863972544
0.0004554070054418912
0.00036839634879075886
0.0002905083806337072
0.00022338952378733165
0.0001675604392844833
0.00012264217831048447
8.762643526657993e-05
6.114171019805243e-05
4.168130674925831e-05
2.777509079712121e-05
1.8101109050899074e-05
1.1543368805073762e-05
7.207717470824584e-06
4.409400111938171e-06
2.64469532353971e-06
1.5563343797658437e-06
8.992826305845097e-07
5.106308143323927e-07
2.851680652292563e-07
1.5676669471245825e-07
8.490778626068254e-08
4.534860254916957e-08
2.3904436897548305e-08
1.2446685432246488e-08
6.406663222617683e-09
3.2623405771628832e-09
1.6444888590806622e-09
8.210831183217343e-10
4.0626729522802777e-10
1.9928892267571164e-10
9.694939421664035e-11
4.678550760377387e-11
2.2401111432540558e-11
1.0643544854744748e-11
5.018936944450055e-12
2.34900629431217e-12
1.09127374516851e-12
5.032516233997362e-13
2.303883197182336e-13
1.0470799673478917e-13
4.7245788361391565e-14
2.1165563011305645e-14
9.414552544301356e-15
4.158075612295868e-15
1.8235925921470755e-15
7.941937620157906e-16
3.434860180609569e-16
1.4753405456855532e-16
6.293291667692735e-17
2.6659282240108756e-17
1.1215640597399656e-17
4.688590198571409e-18
1.950239764282077e-18
8.074235079587915e-19
3.302534642092195e-19
1.3051022633901268e-19
2.6189532977773295e-19
1.1460125741253534e-19
5.513990936407712e-20
2.5199125072671695e-20
6.77505812155222e-21
1.3721022908151636e-21
1.4813012940490673e-20
5.1629237477256214e-20
1.2435847848664885e-19
2.777148193131993e-19
6.277161484961975e-19
1.4302034943925128e-18
3.221605779822687e-18
7.114033430288057e-18
1.538201575321763e-17
3.2567454756504893e-17
6.74740903214426e-17
1.3662990040758457e-16
2.700403482917837e-16
5.202644943427913e-16
9.758810505381128e-16
1.7800527084711526e-15
3.1538593382244276e-15
5.4220915022816905e-15
9.036220573206859e-15
1.4585694641799473e-14
2.2785617915708246e-14
3.4427967338911064e-14
5.028672735552904e-14
7.097602176440651e-14
9.677419020197961e-14
1.2744307681619504e-13
1.620854328653688e-13
1.9908791155530627e-13
2.361875391672664e-13
2.7067516971649587e-13
2.9971626281739095e-13
3.2073816380127855e-13
3.3181330790936386e-13
3.319619333415248e-13
3.213044256920557e-13
3.0101640962033954e-13
2.7308954266446286e-13
2.399735058083159e-13
2.0422812255669425e-13
1.6828835866975628e-13
1.343306117756356e-13
1.0412061250346723e-13
7.875628819805756e-14
5.841111587351533e-14
4.235349686816966e-14
2.942718003729392e-14
1.8808021019850177e-14
1.0511724721304024e-14
5.199572819021357e-15
3.363024958558475e-15
4.544754556741742e-15
7.33596561512748e-15
1.0346215078447015e-14
1.3616194487576525e-14
1.967452328666438e-14
3.3886897000418864e-14
6.45738665415089e-14
1.2397334825730697e-13
2.3114851726206433e-13
4.175605157310389e-13
7.357187626149944e-13
1.271454145873421e-12
2.1609094358261536e-12
3.6139462214248767e-12
5.945867424600165e-12
9.618773117260087e-12
1.5292231914260224e-11
2.3880020301233085e-11
3.660526621295425e-11
5.504050389158758e-11
8.111262284564016e-11
1.170472031708196e-10
1.6522509304812078e-10
2.2792975140155713e-10
3.069797892284797e-10
4.032680567661896e-10
5.162634412540684e-10
6.435664640951843e-10
7.806331829586586e-10
9.207814142793921e-10
1.0555603891155598e-09
1.1754997942386178e-09
1.2711682002454225e-09
1.3343856042227546e-09
1.3593759212938138e-09
1.3436340572579936e-09
1.288327293044109e-09
1.1981436092345623e-09
1.0806163781850968e-09
9.450638071289112e-10
8.013535822497551e-10
6.587214026838241e-10
5.248363702963622e-10
4.0523171224173274e-10
3.0313007862212515e-10
2.1961296233885236e-10
1.540309268799469e-10
1.0453194668456007e-10
6.859572337271792e-11
4.3492100228414786e-11
2.6619327175857797e-11
1.5712443931112048e-11
8.937022080766083e-12
4.896910605250077e-12
2.5878317884686177e-12
1.3248590812710197e-12
6.644979730625942e-13
3.341592629284196e-13
1.750700962013859e-13
9.988686735859318e-14
6.347425861249458e-14
4.409761012463905e-14
3.2108950497466025e-14
2.3604813120395086e-14
1.7139833512249143e-14
1.2177830014744362e-14
8.44936695602919e-15
5.7350749284123096e-15
3.821370203571535e-15
2.5094196085951757e-15
1.6298584285910774e-15
1.0496632445926618e-15
6.709932747085831e-16
4.254459877775623e-16
2.6693264721214796e-16
1.6512209497573028e-16
1.0026531549681803e-16
5.949679780947759e-17
3.4369615549686136e-17
1.928752302138712e-17
1.052915919390363e-17
5.636273569141094e-18
3.016132717364131e-18
1.6696619686811211e-18
9.976662360658248e-19
6.607808601273938e-19
4.800203164048714e-19
3.6911828346170074e-19
2.911893438109634e-19
2.329235159592637e-19
1.9052789074876411e-19
1.6303191219537597e-19
1.5004487038079812e-19
1.5224752075940126e-19
1.7365241610643434e-19
2.2503107911413925e-19
3.2805670197062627e-19
5.19827465731232e-19
8.576108110915558e-19
1.4238639751755375e-18
2.3317383171944823e-18
3.731234678795508e-18
5.815843853784126e-18
8.828850741780559e-18
1.3067569396565808e-17
1.8882783102609656e-17
2.6669869138467225e-17
3.6847855195919215e-17
4.9823370853711606e-17
6.593843116333705e-17
8.540430781067171e-17
1.0822812477240361e-16
1.3414350786119797e-16
1.6256041295676119e-16
1.925506799675783e-16
2.2288354438827238e-16
2.521185511865032e-16
2.7875246699338706e-16
3.0140373336224474e-16
3.19005923641462e-16
3.3097438144556033e-16
3.3731104916181006e-16
3.3862294223579853e-16
3.360484661973865e-16
3.3110843677625695e-16
3.2551870666538713e-16
3.2101212155147387e-16
3.1921586162988193e-16
3.216209225264564e-16
3.296823144264962e-16
3.4513959773182743e-16
3.7080983299904646e-16
4.124884179133264e-16
4.835054115207657e-16
6.161340872626753e-16
8.931702436359325e-16
1.5454550258728892e-15
3.2716910203027805e-15
8.291278989485216e-15
2.3712502823232712e-14
7.187797190418827e-14
2.208111566144479e-13
6.702056443887235e-13
1.985011481185726e-12
5.706896009438337e-12
1.5898674485789433e-11
4.291114036394606e-11
1.1225770323028264e-10
2.8481361035610014e-10
7.012268226305493e-10
1.6762182662627277e-09
3.891887530863126e-09
8.780062837623387e-09
1.92515300954677e-08
4.1035906058222524e-08
8.50505809756709e-08
1.7142492132910816e-07
3.360553746918369e-07
6.408174315013816e-07
1.188725834394028e-06
2.1452725513759756e-06
3.7666854060914127e-06
6.434714366942042e-06
1.0695581609927855e-05
1.7297885724765793e-05
2.7220769439088324e-05
4.168018315183021e-05
6.209868378981814e-05
9.002431020081208e-05
0.00012698809458267134
0.00017429862393807423
0.00023278556965679559
0.00030252047997345987
0.00038255890949522573
0.0004707584771105124
0.0005637279817943097
0.0006569500718382932
0.0007450940134109135
0.0008224996107406227
0.0008837756718021076
0.0009244259412391803
0.0009414008471968664
0.0009334800194988935
0.0009014182409180764
0.0008478304677186338
0.0007768397381266034
0.0006935537619027206
0.0006034622791022788
0.0005118529525061622
0.00042332926063533413
0.0003414850978354497
0.0002687558663612813
0.0002064332490182023
0.00015480700734507612
0.0001133851739754994
8.114361974166087e-05
5.676436661125241e-05
3.883517491015156e-05
2.599693582085773e-05
1.7037316765930004e-05
1.0937371937780553e-05
6.882153433221136e-06
4.247353352049832e-06
2.5727288479375995e-06
1.5306115065043694e-06
8.950725134273424e-07
5.148865150926378e-07
2.9158839622284964e-07
1.6269843805252064e-07
8.951564129159655e-08
4.8602502914120374e-08
2.6061095791974265e-08
1.3810656580648219e-08
7.237944073245989e-09
3.7537161034489425e-09
1.9274835781643207e-09
9.804176076420792e-10
4.94198172295361e-10
2.469511066906092e-10
1.223671877211342e-10
6.0140196507997e-11
2.932197485598844e-11
1.4184609014187124e-11
6.809146095445608e-12
3.2438858812130625e-12
1.5338267828821173e-12
7.198811650062145e-13
3.353915794471295e-13
1.5512495996187443e-13
7.123273474288719e-14
3.2476967084345754e-14
1.4702738446214487e-14
6.609621107538622e-15
2.950792746650814e-15
1.3083134712458403e-15
5.761295819048626e-16
2.519905032136237e-16
1.0947826301419e-16
4.7250444668085286e-17
2.026409789468867e-17
8.636767327355897e-18
3.654703092312238e-18
1.5303894982904274e-18
6.325792209928219e-19
1.2715173604655422e-18
5.527080870006337e-19
2.3747187813686677e-19
8.984403531353403e-20
2.3224925441356895e-20
7.979424843287983e-21
2.5380342749291188e-20
5.808795167628385e-20
1.0683717325717842e-19
2.1642127269363868e-19
5.035994177239517e-19
1.2089550937550338e-18
2.8316093127672607e-18
6.4428718747767226e-18
1.4330141068603298e-17
3.123549782593463e-17
6.666289866893016e-17
1.3904682598972266e-16
2.8297979980360095e-16
5.61111716017838e-16
1.0825970793036638e-15
2.0297674310344735e-15
3.6935694292559676e-15
6.515689727956442e-15
1.1130850721993913e-14
1.839681344710277e-14
2.9393555736943816e-14
4.536954584524527e-14
6.761545120115655e-14
9.725700991682396e-14
1.3497984563023213e-13
1.807263858728472e-13
2.3343086788016965e-13
2.9087192722580197e-13
3.4971385161508396e-13
4.0577389953323807e-13
4.545004966869816e-13
4.915904500323404e-13
5.1362960843082e-13
5.186232233834988e-13
5.062961506964532e-13
4.780917628408758e-13
4.3687779620903635e-13
3.864540257571691e-13
3.310049166560308e-13
2.7461157005593126e-13
2.2084997057842809e-13
1.7244280703681837e-13
1.309778619881939e-13
9.682042467253219e-14
6.937527674089016e-14
4.767747665352662e-14
3.1005261087163545e-14
1.909337904838984e-14
1.1778080784448631e-14
8.383448711026626e-15
7.445896713374889e-15
7.160466039071863e-15
6.351664518089736e-15
5.320616489722973e-15
6.0171727638406776e-15
1.1581967081927849e-14
2.5930536446982676e-14
5.4246449968811195e-14
1.0495143470893757e-13
1.932860435125328e-13
3.465113642173857e-13
6.111120271834387e-13
1.0630688723099773e-12
1.8229262046732223e-12
3.0777111499369397e-12
5.111612214750882e-12
8.346556645274994e-12
1.339217946674316e-11
2.1101738240231466e-11
3.262592971426463e-11
4.9450373848770146e-11
7.339569520856842e-11
1.065537906667174e-10
1.5113327525472056e-10
2.0919490048018544e-10
2.822766000545492e-10
3.709375544081231e-10
4.742866533141873e-10
5.895935238147858e-10
7.120972776358295e-10
8.351174616968727e-10
9.505273983160613e-10
1.0495764834779723e-09
1.1239609539895029e-09
1.1669663317370401e-09
1.1744642626231693e-09
1.145558558595885e-09
1.0827412750776879e-09
9.915237204056412e-10
8.796209308600834e-10
7.55859850390145e-10
6.290273112236883e-10
5.068650898464061e-10
3.9536372251007724e-10
2.9842473913142283e-10
2.178772697455771e-10
1.5377051955601344e-10
1.0482997494886282e-10
6.896323263933165e-11
4.3723443840084355e-11
2.6672837622540933e-11
1.5624218280306796e-11
8.766599680844564e-12
4.698520604988548e-12
2.399227291630287e-12
1.1664081356137045e-12
5.429898884570797e-13
2.477962419822095e-13
1.1781113484377437e-13
6.448742361523147e-14
4.323715575560971e-14
3.36411746786028e-14
2.751293679571461e-14
2.2234019014818767e-14
1.7349721914420664e-14
1.3018694131819378e-14
9.421727616555473e-15
6.610004573782392e-15
4.519727945332736e-15
3.0267120902340273e-15
1.9929319508022458e-15
1.2938401589307467e-15
8.293878403132473e-16
5.249899028397704e-16