# vtk DataFile Version 4.1 
COMMENT
ASCII
DATASET STRUCTURED_POINTS 
DIMENSIONS 300 300 1 
ORIGIN 0 0 0
SPACING 0.020943951023931952 0.020943951023931952 0 
POINT_DATA 90000
SCALARS U double 1
LOOKUP_TABLE default
8.969873318261738e-19
9.048517101593798e-19
9.833703394889768e-19
2.2107039398047477e-18
5.58277078312501e-18
1.227227411430839e-17
2.5460237506162207e-17
5.370956983294027e-17
1.1761764355463564e-16
2.66103520427214e-16
6.176440554504308e-16
1.461158540655693e-15
3.493860787969766e-15
8.361719976745914e-15
1.983902867372874e-14
4.6289249556208697e-14
1.0554323812354859e-13
2.340198922923463e-13
5.02657290820409e-13
1.0425804548380252e-12
2.0825630121128594e-12
3.997265497356154e-12
7.360281538569537e-12
1.299505650208967e-11
2.2040691434219868e-11
3.6152177539649487e-11
5.824878908462925e-11
9.491246662417351e-11
1.6292515291711424e-10
3.0488705712988485e-10
6.226540729532769e-10
1.342344553365989e-09
2.9298660225959756e-09
6.278766804678077e-09
1.2988146826346666e-08
2.57305862623963e-08
4.867030095643349e-08
8.782260739438129e-08
1.5114592119268284e-07
2.480408335083427e-07
3.8783948000091986e-07
5.768848672842901e-07
8.140455919344232e-07
1.085114433209045e-06
1.3575551969825678e-06
1.578357823442294e-06
1.6789120917860814e-06
1.5910988581943303e-06
1.277411929963186e-06
7.743594483366869e-07
2.4294345162228276e-07
1.4071614050423042e-08
6.126327480936312e-07
2.744139480084376e-06
7.233779300396062e-06
1.4918874622512691e-05
2.6509295427823582e-05
4.244193899753443e-05
6.276073365749503e-05
8.705034082291353e-05
0.00011444036205827162
0.0001436807585227543
0.00017327326465940997
0.00020163246840527516
0.0002272467186718487
0.0002488132486700886
0.0002653316035664584
0.00027615099731155654
0.00028097697900895653
0.0002798483747025437
0.0002730963469441191
0.0002612947590377416
0.0002452069756117499
0.00022573084992836214
0.00020384214471439095
0.00018053705100213446
0.00015677596435744964
0.00013343211857529705
0.00011124922383251604
9.081165258948639e-05
7.252923173627235e-05
5.6636856303537834e-05
4.320742662591593e-05
3.21753218704886e-05
2.3366854944070498e-05
1.6533887454770257e-05
1.1386963261968629e-05
7.624883654770937e-06
4.9585137946000965e-06
3.127653043635986e-06
1.9108552714710594e-06
1.1289773099314085e-06
6.43834051845962e-07
3.5359358680658476e-07
1.864848777142239e-07
9.410517165544366e-08
4.522087414179418e-08
2.055956667197765e-08
8.764393523073194e-09
3.457651800923076e-09
1.237444706560557e-09
3.8884517437866956e-10
1.0110443236047632e-10
1.9136004940974222e-11
1.7933141347575068e-12
6.40101495928273e-14
3.0118938528378407e-13
2.378152599907305e-13
1.6513804794841957e-13
3.8536292258908356e-13
8.564157691512976e-13
1.3766432730658443e-12
1.76589141303819e-12
1.9382618181742947e-12
1.8967362394150076e-12
1.6969188687014994e-12
1.4105555187550944e-12
1.1012819085869163e-12
8.137165528239961e-13
5.722065778856326e-13
3.847406541210861e-13
2.485337463588074e-13
1.5519291495088005e-13
9.455290904068647e-14
5.703914428136694e-14
3.480931846857425e-14
2.205454922333825e-14
1.481939842991655e-14
1.061327221110063e-14
7.98724777373304e-15
6.167647286052395e-15
4.779819839287961e-15
3.661475218750745e-15
2.748931331465615e-15
2.015354662635051e-15
1.4420722809544808e-15
1.0085291117819358e-15
6.912178745066498e-16
4.658533400578803e-16
3.0987650797945394e-16
2.041374032691809e-16
1.3356071268412895e-16
8.701541441631218e-17
5.671560031047844e-17
3.743830881383031e-17
2.5755861523024967e-17
1.939523924089631e-17
1.6772398716089383e-17
1.670478648822693e-17
1.8275283937302486e-17
2.0801863223871328e-17
2.3859174376756163e-17
2.7302296230412828e-17
3.1258357879346256e-17
3.607428068168168e-17
4.223063545634376e-17
5.024366768729529e-17
6.057357188715136e-17
7.35367013797567e-17
8.919036606724131e-17
1.0713749135160828e-16
1.2620735122698616e-16
1.4403197370688787e-16
1.5667423746424208e-16
1.586799349432612e-16
1.4421731222950154e-16
1.1033116954257485e-16
6.380680014631799e-17
3.3826524075251526e-17
9.374613869335134e-17
3.9727047050237967e-16
1.2374004733129542e-15
3.1407588072813704e-15
7.014392179557616e-15
1.436438877553099e-14
2.7600765472567398e-14
5.042347325249791e-14
8.8240286146678e-14
1.484890092394737e-13
2.406183514412744e-13
3.753295644069283e-13
5.625214834245513e-13
8.072791195186235e-13
1.1033302234794458e-12
1.4239160544723725e-12
1.7114629959189954e-12
1.870715172013744e-12
1.7767875463425944e-12
1.3229176377158972e-12
5.57509000035039e-13
4.022121817116607e-15
1.3309753384443238e-12
8.655253970875521e-12
3.0930447677244804e-11
8.609194476216468e-11
2.0787247926109829e-10
4.5638348254739666e-10
9.33520928936224e-10
1.8037703121202873e-09
3.319840792192268e-09
5.850811845857223e-09
9.908979260721815e-09
1.6172819818335756e-08
2.5512565650872956e-08
3.905021623646236e-08
5.833853763483963e-08
8.583415879434365e-08
1.2597056751915849e-07
1.8728981007652279e-07
2.8621492644697293e-07
4.530422805633353e-07
7.404681576184177e-07
1.2342938414276864e-06
2.0647935570333023e-06
3.415651028651953e-06
5.525696138203938e-06
8.677524972158482e-06
1.3167315539488928e-05
1.9252605787265147e-05
2.7079937460985907e-05
3.6601708247758974e-05
4.7499778849033824e-05
5.913969833502834e-05
7.058063944415823e-05
8.065961233150862e-05
8.815345653358167e-05
9.200063661011583e-05
9.154227106879988e-05
8.6725487327129e-05
7.820933935335048e-05
6.732837283930312e-05
5.5900347091757445e-05
4.590540435715941e-05
3.910235431173313e-05
3.66710434136865e-05
3.8968987534325964e-05
4.546392651587071e-05
5.485871108026084e-05
6.53745964222854e-05
7.511919777605188e-05
8.244804378941001e-05
8.623796372879269e-05
8.60215639399482e-05
8.197319613066834e-05
7.477451634767727e-05
6.541140853576494e-05
5.495937659148808e-05
4.440382287458722e-05
3.452176831501003e-05
2.5830516617301003e-05
1.8592671774169967e-05
1.2858571519144033e-05
8.526162150178383e-06
5.402195607890431e-06
3.254489887593684e-06
1.8505999681602478e-06
9.824012647524973e-07
4.785348080970457e-07
2.077040516091507e-07
7.592729195161506e-08
2.0460745500405924e-08
2.5026843225472064e-09
1.3656084394971707e-10
2.365678387327528e-09
4.5908337922222105e-09
5.518210005348954e-09
5.266296857209947e-09
4.352078629726882e-09
3.2439955528853493e-09
2.230909752663149e-09
1.435571219904443e-09
8.728010098558059e-10
5.050551657480503e-10
2.798774269069617e-10
1.4937430177438472e-10
7.721911588440236e-11
3.888985108413267e-11
1.9192572175664513e-11
9.33141235490011e-12
4.4888088477608e-12
2.1417448536096967e-12
1.013916024557803e-12
4.754038772113848e-13
2.2001497801179077e-13
1.0004588461870974e-13
4.4469647292948596e-14
1.9214263613712545e-14
8.020839682830967e-15
3.2120329744702362e-15
1.223552625416732e-15
4.3887497411549633e-16
1.4637021950283953e-16
4.452993092381297e-17
1.2030015161209151e-17
3.06307542700909e-18
1.2065561889246952e-18
7.856519908752532e-19
3.652293620845272e-19
1.980142315702403e-19
5.213718328311338e-19
1.0237014070559781e-18
3.865544769170817e-19
5.449972952873028e-20
7.223269568881107e-19
2.424935015819036e-18
5.128888465554412e-18
1.0258767369409962e-17
2.2388477743890778e-17
5.2003363503065754e-17
1.2300872637072805e-16
2.9271454805240246e-16
7.008842028938542e-16
1.685186303390879e-15
4.045095498688624e-15
9.625282246022563e-15
2.2552837009624683e-14
5.173164514490601e-14
1.1557210939283564e-13
2.5030798281097157e-13
5.232773692166003e-13
1.051481807085783e-12
2.022460016268585e-12
3.708221476349924e-12
6.455835570693889e-12
1.0642034482000616e-11
1.6628600245093164e-11
2.4929672501411125e-11
3.725176189326592e-11
6.003082554084337e-11
1.1387388649958953e-10
2.551854856655835e-10
6.20232816761917e-10
1.506376197236262e-09
3.5085130122732117e-09
7.727836845596906e-09
1.6059955717847544e-08
3.154377373506755e-08
5.8704160065897825e-08
1.0374534728046688e-07
1.743521062695359e-07
2.7875659588545476e-07
4.2369055481654506e-07
6.109694873961202e-07
8.328798412907472e-07
1.0673608682263535e-06
1.2751468059123503e-06
1.402256527633578e-06
1.3918699377518257e-06
1.2089094228160797e-06
8.779058837106055e-07
5.299699361265843e-07
4.4893270186104233e-07
1.101994844917926e-06
3.138955727835776e-06
7.348055044274813e-06
1.4565696400526018e-05
2.5549705589182756e-05
4.083751323465492e-05
6.061767306149763e-05
8.464273664132257e-05
0.00011220350629335129
0.0001421714591949535
0.00017310166536903777
0.00020337689178473477
0.0002313675887854042
0.0002555828629805899
0.0002747931605087441
0.0002881137597993809
0.0002950465729854777
0.00029548409106485227
0.0002896826824894245
0.00027821319650596767
0.00026189604684596825
0.00024172688338770204
0.0002187983492205104
0.00019422331713260345
0.00016906494025055154
0.00014427829221528866
0.00012066707339281666
9.885701454677689e-05
7.928568962005945e-05
6.220691480729606e-05
4.770698523951042e-05
3.57296271298005e-05
2.610650831841386e-05
1.8590256390160076e-05
1.2887109440833876e-05
8.686620582534731e-06
5.686339432917135e-06
3.610127870742255e-06
2.2196542052354014e-06
1.3194896736299784e-06
7.569303284341357e-07
4.18066955774129e-07
2.2169750070123758e-07
1.1247800715524124e-07
5.43477106420492e-08
2.485795822612799e-08
1.0673951445136637e-08
4.253190957450143e-09
1.5464070883480648e-09
5.002790498288773e-10
1.3859149176976849e-10
3.1179858885246996e-11
5.660757608674896e-12
1.3078630409196838e-12
6.038522322727953e-13
1.72099797963834e-13
3.080526922686103e-15
2.7990563732684185e-13
8.758196564523364e-13
1.5257992865486274e-12
2.0127946916137984e-12
2.2382389251987953e-12
2.208596386748172e-12
1.9905106092445008e-12
1.6681192230556984e-12
1.3154731914024316e-12
9.844851871001838e-13
7.037958901417509e-13
4.833505441371453e-13
3.2075269878510086e-13
2.070932225390321e-13
1.3127335454079446e-13
8.268265946333767e-14
5.251692586949507e-14
3.415787439306773e-14
2.3010963535645246e-14
1.61022262975879e-14
1.1627468711808935e-14
8.556509956581005e-15
6.331410071826548e-15
4.659752772359551e-15
3.3860609482479867e-15
2.4193532592258324e-15
1.6967681636650092e-15
1.167905596763259e-15
7.895823715482437e-16
5.248793983899972e-16
3.4332462394107304e-16
2.2089786493863137e-16
1.3953320329016064e-16
8.622520058145642e-17
5.196067617701589e-17
3.066901213946605e-17
1.831264533069077e-17
1.2173944250957634e-17
1.0349078392671411e-17
1.1430954806875352e-17
1.4345086883938575e-17
1.8290689899580404e-17
2.2735011645567545e-17
2.741432655703858e-17
3.2310661467654926e-17
3.7595415420826204e-17
4.3551791683725745e-17
5.049830396062076e-17
5.872926516719939e-17
6.846544580694156e-17
7.977813686621901e-17
9.243015482373393e-17
1.0559003234406445e-16
1.1744076679974792e-16
1.2483155401440354e-16
1.2330269255989334e-16
1.0802855881587679e-16
7.645281794459909e-17
3.365655710697091e-17
1.9203190874718412e-18
3.677172755383487e-17
2.5344594236543586e-16
8.705462562727642e-16
2.2819324998406875e-15
5.172869767189025e-15
1.0700156310062934e-14
2.0754042024037783e-14
3.8305358281117317e-14
6.780529360184442e-14
1.1553816366977352e-13
1.897233450344946e-13
3.0002535002838443e-13
4.559850002465584e-13
6.63789530325301e-13
9.208762746994274e-13
1.2083426757748594e-12
1.482440111583548e-12
1.6693412381250498e-12
1.6732965261640755e-12
1.4196879004698392e-12
9.754314760462793e-13
8.2609404758444e-13
2.451302922421805e-12
9.439717371038694e-12
2.9535163446363915e-11
7.821534555334283e-11
1.8466754707048213e-10
4.013039159848936e-10
8.181657136334578e-10
1.5835676595813927e-09
2.9320101754864498e-09
5.219818652675422e-09
8.968825080468045e-09
1.4920586584897454e-08
2.4112054948992975e-08
3.8004786674787414e-08
5.87424345873501e-08
8.968381037915561e-08
1.364635872428156e-07
2.089564836052806e-07
3.2462310293796763e-07
5.137199251728637e-07
8.266516216477797e-07
1.3432096135868606e-06
2.182496836917969e-06
3.511024907665016e-06
5.545029538671714e-06
8.541977880398316e-06
1.2776242608029302e-05
1.849573264358201e-05
2.5860363275684467e-05
3.486942544857447e-05
4.529202208367535e-05
5.662063699586083e-05
6.806986379629591e-05
7.863790122728101e-05
8.72365790694576e-05
9.287777554291519e-05
9.488422815279846e-05
9.307708434232488e-05
8.788752927080278e-05
8.034978539284211e-05
7.195771550698838e-05
6.440191389701766e-05
5.923892704968818e-05
5.7567967763460806e-05
5.979438813494476e-05
6.554031950656626e-05
7.372580539931719e-05
8.27993427133499e-05
9.105864040407116e-05
9.698215984566601e-05
9.949500263317312e-05
9.81164653246482e-05
9.297204399664081e-05
8.468796477747785e-05
7.421116161124782e-05
6.260666244264e-05
5.0878158098913684e-05
3.984128272616031e-05
3.00598400707238e-05
2.1838934635088802e-05
1.5259113607878365e-05
1.023264689131973e-05
6.565307879455089e-06
4.011971334881396e-06
2.3197721471879156e-06
1.2570431466575013e-06
6.29217687064106e-07
2.844108623493574e-07
1.118446447400061e-07
3.606555859320131e-08
9.347462893908188e-09
3.9978963155907635e-09
5.629504694606953e-09
7.897502305679836e-09
8.782406247110873e-09
8.228048220835103e-09
6.816388365701672e-09
5.141730207072103e-09
3.596740106606071e-09
2.3618616834727813e-09
1.4687587330824149e-09
8.708723507544519e-10
4.951814916084288e-10
2.714296342128632e-10
1.4415358377929303e-10
7.454587556745179e-11
3.77163287620695e-11
1.875109923584872e-11
9.192661202411273e-12
4.454302457389934e-12
2.135156185335947e-12
1.0119354342805075e-12
4.733284481151596e-13
2.178927653396807e-13
9.836866518797616e-14
4.337252500895085e-14
1.85906661721084e-14
7.706375662332536e-15
3.072307275771574e-15
1.1715127289890535e-15
4.253998744094221e-16
1.4715065396269893e-16
4.9457768655561056e-17
1.7472838993415895e-17
7.429137341321718e-18
3.808640216644393e-18
2.093733327718635e-18
1.4214839874492346e-18
1.3069162194847304e-18
2.135322769368385e-18
7.524530526175417e-19
2.686510345364561e-19
7.426589250860746e-19
1.4873227818222118e-18
2.0905791072426954e-18
3.513836636459329e-18
8.427632706536451e-18
2.180255728387746e-17
5.4286297713756707e-17
1.321079710635465e-16
3.208497380440919e-16
7.806308204572511e-16
1.893266746453977e-15
4.548609252579669e-15
1.0765032054015076e-14
2.4967948559129158e-14
5.646214313263105e-14
1.2383999725656382e-13
2.6203094853776676e-13
5.318674880188321e-13
1.0294522418344019e-12
1.8871512504825504e-12
3.2499958021773664e-12
5.206787974334862e-12
7.676000207861172e-12
1.0346813222032543e-11
1.3064292899008058e-11
1.7706235544383123e-11
3.387240385999181e-11
9.283431706991883e-11
2.772542864354421e-10
7.778524228259838e-10
1.991468836434753e-09
4.675867610942936e-09
1.017199925664596e-08
2.068969936321214e-08
3.962189974062766e-08
7.179883608594913e-08
1.235145363484275e-07
2.0206349945239128e-07
3.144553944225114e-07
4.650133225145296e-07
6.518316623395209e-07
8.626962675839142e-07
1.07207902126461e-06
1.242013006649897e-06
1.3305282748704114e-06
1.3111296457307594e-06
1.204810263139726e-06
1.1220921092769485e-06
1.3072616542832726e-06
2.172039993807653e-06
4.303677145986366e-06
8.434795967205922e-06
1.5369707714118684e-05
2.5872844267736084e-05
4.053617571648239e-05
5.965027119259915e-05
8.310528530338107e-05
0.00011034298823279512
0.00014037065096983052
0.00017183528128073293
0.00020314573396421038
0.00023262303382846214
0.00025865681745736657
0.0002798476721975519
0.00029511995682417576
0.0003037957641758399
0.00030562661619595334
0.0003007844169724252
0.0002898168871945146
0.0002735753209104362
0.00025312426742998514
0.00022964367589946438
0.00020433393995636996
0.0001783329055418791
0.00015265128248045465
0.00012812949068885337
0.00010541557273009849
8.496122809373454e-05
6.703174282275775e-05
5.172555520224538e-05
3.899994232353644e-05
2.8700220682876635e-05
2.0590476597510868e-05
1.4384054883080658e-05
9.772005335121455e-06
6.447707274235219e-06
4.1261870146604325e-06
2.5572585150214236e-06
1.5324263154106583e-06
8.862765452114599e-07
4.936494720862069e-07
2.641318998299539e-07
1.353373080032094e-07
6.614642238551803e-08
3.0684310490544346e-08
1.3422838760442462e-08
5.491059847184142e-09
2.0783080420128017e-09
7.185703247452696e-10
2.2436495647897467e-10
6.355418221723854e-11
1.7418167839341458e-11
5.4115314740041465e-12
2.0061618477451334e-12
7.264347020964338e-13
3.84601914782205e-13
7.079435054940959e-13
1.3887697459294816e-12
2.0941958575531887e-12
2.5902133184600286e-12
2.7839955914523168e-12
2.6956669995708446e-12
2.405769049520478e-12
2.009283731158906e-12
1.5873249382508423e-12
1.1955911001294457e-12
8.641280959718818e-13
6.027690528497085e-13
4.081626810304838e-13
2.7007094581552075e-13
1.759895244926215e-13
1.1399634647440637e-13
7.415236811816854e-14
4.890728999840491e-14
3.292974690710232e-14
2.2679622860167383e-14
1.5926957152763154e-14
1.1326672539445937e-14
8.0911980093289e-15
5.7629487717283285e-15
4.069436670694282e-15
2.8382541698610823e-15
1.9510576715527305e-15
1.3205418495050856e-15
8.796105044879461e-16
5.762600690989041e-16
3.707371372636397e-16
2.3341886311039174e-16
1.4288409354485955e-16
8.410018672541507e-17
4.6794572350959746e-17
2.408202057407667e-17
1.1377717709147492e-17
5.588411544003856e-18
4.5513374172909655e-18
6.679769007414117e-18
1.0768207200029645e-17
1.5906436786641326e-17
2.1451599816849822e-17
2.701452070911201e-17
3.2432132580743484e-17
3.7718784303664396e-17
4.300799817353919e-17
4.850419523930014e-17
5.4455416678158966e-17
6.113459861160714e-17
6.878886243005587e-17
7.750146084474982e-17
8.692990266917583e-17
9.595132234752918e-17
1.0236308311841867e-16
1.0293423869766468e-16
9.424847975517363e-17
7.489448593477271e-17
4.966447296744581e-17
3.6635080476437697e-17
7.859139388734423e-17
2.616269002898091e-16
7.463719099293175e-16
1.8214302078422004e-15
3.993849515221467e-15
8.136160828865234e-15
1.571011604580455e-14
2.907781582481099e-14
5.188348272411717e-14
8.943526220403071e-14
1.4893075010355667e-13
2.3925624746734875e-13
3.6997044962961927e-13
5.490136191266024e-13
7.787736213716445e-13
1.0505937643583277e-12
1.3389876052321152e-12
1.5993764074377366e-12
1.778216283843495e-12
1.8538880312212896e-12
1.9439698898291776e-12
2.5448222549257428e-12
5.0209586885806805e-12
1.2546144326933322e-11
3.1830546638019515e-11
7.616457688005633e-11
1.7058136436416935e-10
3.6028187096066976e-10
7.238485607675964e-10
1.3931381011497817e-09
2.582049032168211e-09
4.62671324656134e-09
8.040600693549646e-09
1.359100394410698e-08
2.241134476563631e-08
3.618165885619808e-08
5.744414086703376e-08
9.017833903322185e-08
1.408435580038154e-07
2.2019448782323258e-07
3.4625909334409816e-07
5.488755564941158e-07
8.760291977083964e-07
1.4018105819972462e-06
2.2350600756142214e-06
3.526689547739308e-06
5.47245626141724e-06
8.306991378957371e-06
1.2284726183207437e-05
1.764464238250243e-05
2.4558943076729713e-05
3.307074248458528e-05
4.303187622300752e-05
5.4057263432561234e-05
6.551465447732037e-05
7.656590540378319e-05
8.626697733250245e-05
9.371940503278483e-05
9.824906797386584e-05
9.957369359555225e-05
9.791417190401019e-05
9.40106239529115e-05
8.902308385353893e-05
8.4325063258018e-05
8.122863714914347e-05
8.070259213628801e-05
8.315245008403171e-05
8.831904951520954e-05
9.532326932627937e-05
0.00010284666930509753
0.00010940274733338983
0.00011363184784026888
0.00011455063201081085
0.00011170397284678281
0.00010519657895191294
9.561360039680822e-05
8.386433183985798e-05
7.099491750147866e-05
5.801377475989204e-05
4.5760842522644894e-05
3.483462938727182e-05
2.557514815529095e-05
1.8089980556253194e-05
1.2306127056404056e-05
8.031023653417207e-06
5.010092088551224e-06
2.9732814186322492e-06
1.667677350322007e-06
8.766006917329552e-07
4.2754261375890444e-07
1.9203631345174124e-07
8.052301333942652e-08
3.4789514165068596e-08
1.989569164735436e-08
1.6838536807073434e-08
1.6608761085694426e-08
1.5835090377260406e-08
1.389814711085731e-08
1.1224682463891284e-08
8.419499730152731e-09
5.920552813165439e-09
3.9337547787871206e-09
2.485496753283414e-09
1.5015457256855875e-09
8.715144429674563e-10
4.881662778911829e-10
2.6502924729465683e-10
1.4004926499642516e-10
7.232403697175469e-11
3.66360712149582e-11
1.8261218623969716e-11
8.978042397908582e-12
4.360134338904694e-12
2.092634110785249e-12
9.92107660595689e-13
4.640023628292197e-13
2.1363687126474069e-13
9.657233565252984e-14
4.27239603668019e-14
1.8436033536841848e-14
7.73590706781072e-15
3.1508955965105014e-15
1.2475907546887156e-15
4.844468287335319e-16
1.8891901342538721e-16
7.737944379340501e-17
3.4935461223826857e-17
1.7574128220921225e-17
9.719410865063817e-18
5.96286410291764e-18
3.853504622498781e-18
6.677721998358843e-18
3.272548756760906e-18
1.9098993069756916e-18
1.6335451454419785e-18
1.2914318213090444e-18
6.524002091328112e-19
7.198950012533825e-19
3.0026780858075393e-18
9.262323021443198e-18
2.3462290641603902e-17
5.709325260176189e-17
1.404217772063765e-16
3.4786403136825766e-16
8.579690730383194e-16
2.092728455605114e-15
5.028120884761086e-15
1.1852230060050276e-14
2.7272878990966056e-14
6.090525816023183e-14
1.3115804457100841e-13
2.7052376736291474e-13
5.30454415370333e-13
9.800511275917357e-13
1.6861309365514972e-12
2.6557734138845243e-12
3.729390182909653e-12
4.46891367261965e-12
4.26916466790637e-12
3.3655269502093296e-12
6.30727149166696e-12
3.101152259784117e-11
1.2880731150542888e-10
4.237645101805785e-10
1.1825020940771807e-09
2.9274676901171117e-09
6.605585716896909e-09
1.3817383015787447e-08
2.7094743538583576e-08
5.018174444292121e-08
8.821569351030887e-08
1.4762451747038992e-07
2.3547368837657061e-07
3.579727594087598e-07
5.179982907850422e-07
7.119384071570634e-07
9.269888177209887e-07
1.1411246207252185e-06
1.3289426892383005e-06
1.476744650999819e-06
1.6088787677085637e-06
1.8241028176319522e-06
2.3359912318608813e-06
3.5065982206561726e-06
5.859784583914851e-06
1.0061736406328812e-05
1.6861988891604596e-05
2.699763927945361e-05
4.107367073434591e-05
5.944008002198234e-05
8.208924302379661e-05
0.00010859390350451313
0.00013809853139323263
0.00016936700923479524
0.00020088024318904693
0.00023097017171283372
0.0002579725041319537
0.000280379262455947
0.000296973330282523
0.0003069302074190249
0.000309876602138522
0.0003059009816325599
0.00029551727279139323
0.00027958889125494283
0.0002592253002420941
0.00023566640985495197
0.00021017057287402494
0.00018391950509595703
0.00015794871134930364
0.00013310618932567455
0.00011003688207555819
8.91868679701438e-05
7.082018721452004e-05
5.504219175864369e-05
4.182541141849839e-05
3.103603944457851e-05
2.246046455426774e-05
1.583159045104257e-05
1.0854277571719754e-05
7.228651321152754e-06
4.669723149800317e-06
2.921985214104692e-06
1.7682980256129984e-06
1.0332401694302322e-06
5.818430387655064e-07
3.15092637538958e-07
1.6368415505453972e-07
8.132318724356777e-08
3.850518754802097e-08
1.730274109922678e-08
7.344935018091054e-09
2.93213707036846e-09
1.0980204571306348e-09
3.873151567554694e-10
1.31352056962567e-10
4.495853428536113e-11
1.6614525889379935e-11
6.90683870469969e-12
3.347723030051115e-12
2.231776836222482e-12
2.275799393067179e-12
2.7964231169662334e-12
3.3438531306845717e-12
3.665074963136986e-12
3.678493111560981e-12
3.4190860695665647e-12
2.9774023450342655e-12
2.4526550575904934e-12
1.926006133757145e-12
1.450906363309086e-12
1.0542576133376904e-12
7.42665357789095e-13
5.098444604711624e-13
3.4304175139655953e-13
2.2766203839247843e-13
1.5007742774102995e-13
9.89774944557688e-14
6.572478579553712e-14
4.4138376070522433e-14
3.002394175005262e-14
2.065525922562521e-14
1.4316632257002404e-14
9.948292847166952e-15
6.8963888469928924e-15
4.7497874334315e-15
3.2403487848538297e-15
2.185255654728833e-15
1.4549241639688427e-15
9.552930644494079e-16
6.176342399858664e-16
3.920954985544161e-16
2.4309959464267117e-16
1.4577805119990154e-16
8.312104345160889e-17
4.3719069874879536e-17
2.0022826087456147e-17
7.049302426161921e-18
1.4582562126197079e-18
9.260567889486492e-19
3.751046112582774e-18
8.630923211075522e-18
1.4556684806083792e-17
2.0772066234294436e-17
2.6756426161840938e-17
3.220449651986602e-17
3.699566587245241e-17
4.11616774071432e-17
4.4867031893348955e-17
4.840661577265426e-17
5.2202837348897204e-17
5.676093046187525e-17
6.253329065785738e-17
6.966921165485831e-17
7.769452494247668e-17
8.526950092901718e-17
9.028646638493877e-17
9.065202702504123e-17
8.612387008891195e-17
8.155977964880412e-17
9.200683587328797e-17
1.5047265381233187e-16
3.203812238620363e-16
7.170872560856099e-16
1.546717233064024e-15
3.175810376615228e-15
6.2504929858028606e-15
1.1886376540519616e-14
2.1945197453863407e-14
3.939484914865404e-14
6.870895793365843e-14
1.1619634935742918e-13
1.9006376535130995e-13
2.9992800784176704e-13
4.55456640452148e-13
6.639275820593705e-13
9.269321519406176e-13
1.237503761894726e-12
1.5811481427855576e-12
1.9484597495921533e-12
2.3747454294386652e-12
3.0359298516095237e-12
4.4543413002124636e-12
7.909855968168619e-12
1.6222278063990094e-11
3.5185535799239044e-11
7.611377149190188e-11
1.6022651008679657e-10
3.259744760082898e-10
6.408991384577938e-10
1.2202284414440486e-09
2.2551589762918754e-09
4.054794872987971e-09
7.1074568648793575e-09
1.217065416986484e-08
2.0406647717016677e-08
3.359591045299548e-08
5.448890129903607e-08
8.740237906512367e-08
1.3923166503468908e-07
2.211275995050361e-07
3.511530349715771e-07
5.582425688686032e-07
8.876715225853663e-07
1.4079148106955231e-06
2.2181799448920746e-06
3.455033483634489e-06
5.29553215917156e-06
7.953409577686493e-06
1.1664607090435176e-05
1.6659294099690572e-05
2.3119905048522142e-05
3.112866633662388e-05
4.061302929628377e-05
5.130209439661275e-05
6.270969961343907e-05
7.41584972502865e-05
8.485289202161854e-05
9.399743672091009e-05
0.00010094334296324382
0.00010533302230034765
0.00010720563098062993
0.00010702925411939963
0.0001056389904637703
0.00010408261689683949
0.00010340108756758886
0.00010439218383713094
0.00010741493076118582
0.00011228578217606064
0.00011829582800803012
0.0001243472617971445
0.00012917627383688754
0.00013160785280142426
0.00013078206499239202
0.00012630234799014287
0.00011827984097378045
0.00010727576367813986
9.416773790632537e-05
7.99794977538298e-05
6.571458463800338e-05
5.2225447994531977e-05
4.013461438809028e-05
2.980952944313943e-05
2.138132094372822e-05
1.4791893300896275e-05
9.85316653228503e-06
6.305308995071026e-06
3.865481273574122e-06
2.2632380674662577e-06
1.262326421177026e-06
6.708411971071956e-07
3.426871199808877e-07
1.7340252392211426e-07
9.299663996881869e-08
5.783153610745408e-08
4.292686409979592e-08
3.547990759525011e-08
2.9921570395423365e-08
2.4488573073364384e-08
1.908311666009413e-08
1.4098828066009336e-08
9.888958466694729e-09
6.605962412006261e-09
4.218145230970576e-09
2.584029740435672e-09
1.5241423842053553e-09
8.686548940104428e-10
4.800631048760391e-10
2.5817149845145013e-10
1.3557508773033482e-10
6.975065597339889e-11
3.526366271102952e-11
1.7565210348798207e-11
8.63841053493311e-12
4.200564664325012e-12
2.021218290122983e-12
9.624217373305258e-13
4.5315646704497007e-13
2.106879152240654e-13
9.653761395007542e-14
4.3503944533033144e-14
1.9252973377538537e-14
8.36940279267813e-15
3.586495443417426e-15
1.5292489301199616e-15
6.602010661309469e-16
2.9567989889873487e-16
1.4046451803974523e-16
7.140675235497472e-17
3.8685168033916863e-17
2.1996066341763514e-17
1.2553431968104618e-17
2.2796229678070613e-17
1.2195471586646678e-17
6.874705679678705e-18
3.995051909831588e-18
1.8510470736494248e-18
3.351511489768494e-19
1.6776080956447666e-19
1.625119722294294e-18
4.508210071486018e-18
9.925317317879902e-18
2.3211432058124386e-17
5.850358257340725e-17
1.4948348317769207e-16
3.771689172141623e-16
9.372908795023758e-16
2.295213548377931e-15
5.526158953066556e-15
1.3016191859126397e-14
2.978639701488329e-14
6.572531377730931e-14
1.3876639692036648e-13
2.780633258593339e-13
5.237210646758749e-13
9.14969267533474e-13
1.4530541386905566e-12
2.0264210832875597e-12
2.317782690727216e-12
1.8293529958923295e-12
4.618888856375771e-13
7.078082425902414e-13
1.362369461947516e-11
7.242493265198211e-11
2.5972369143376524e-10
7.568079583521948e-10
1.9254072808834634e-09
4.4333623403625315e-09
9.434239282341307e-09
1.8804457291298913e-08
3.5424320815027373e-08
6.345288620744112e-08
1.0848390097815603e-07
1.7738855005575508e-07
2.7759182978144534e-07
4.155835646138156e-07
5.947601711465039e-07
8.133322908482078e-07
1.0639816266933157e-06
1.3379172052804481e-06
1.6363914589559998e-06
1.9918877218406965e-06
2.4986180738654427e-06
3.347885664583274e-06
4.859403704562922e-06
7.49667154575615e-06
1.1854821563642523e-05
1.861383342465198e-05
2.8457895033378082e-05
4.197066330475835e-05
5.9523312550315035e-05
8.117529106730168e-05
0.00010660598773545265
0.00013509008374196877
0.00016552220582553823
0.00019648944790966267
0.0002263843855872725
0.00025354651920374754
0.0002764164736097117
0.00029368485589440077
0.0003044170191211858
0.00030813691805476
0.00030485826630913504
0.0002950589930592357
0.0002796042493442095
0.00025963189250231676
0.00023642029832181277
0.0002112599132074755
0.00018534675599048633
0.0001597091286869365
0.00013517024587929337
0.0001123418720671184
9.163936156554593e-05
7.330751104633763e-05
5.7448783179623485e-05
4.404921499069804e-05
3.300095334587129e-05
2.4122623875007262e-05
1.7179257409872266e-05
1.1902677779500966e-05
8.011918941933017e-06
5.2321776561906e-06
3.3104676599752314e-06
2.026547862447402e-06
1.1985684557915395e-06
6.838278304514132e-07
3.7574555703107143e-07
1.98482978565858e-07
1.0059766339898328e-07
4.882026392457695e-08
2.264192070658489e-08
1.0021131731700539e-08
4.233058885357156e-09
1.712547972484679e-09
6.703187730857538e-10
2.592340865710458e-10
1.0247650583358579e-10
4.315471996596188e-11
2.0144486303892514e-11
1.0909838005210573e-11
7.2621321868719295e-12
6.008738642490003e-12
5.705281157146316e-12
5.627690444604556e-12
5.4379925750374435e-12
5.032280687715037e-12
4.4372494583931876e-12
3.734354719784069e-12
3.011034020810812e-12
2.3358001359385446e-12
1.7504677841645931e-12
1.2723104871185176e-12
9.004962045199763e-13
6.232172922518183e-13
4.236834568942749e-13
2.8434079870634025e-13
1.8936461157091938e-13
1.257880707851323e-13
8.37104312768314e-14
5.5983005161998627e-14
3.767223114901672e-14
2.5492347164098572e-14
1.7310069324718948e-14
1.17595496146914e-14