# vtk DataFile Version 4.1 
COMMENT
ASCII
DATASET STRUCTURED_POINTS 
DIMENSIONS 300 300 1 
ORIGIN 0 0 0
SPACING 0.020943951023931952 0.020943951023931952 0 
POINT_DATA 90000
SCALARS U double 1
LOOKUP_TABLE default
6.613071950930974e-19
3.5580370976460734e-19
1.0521953097989683e-18
2.734259103865074e-18
5.103364842762686e-18
8.407710711843335e-18
1.3470291816624159e-17
2.1323691807334983e-17
3.453100289655473e-17
6.403692048646413e-17
1.5134901985852294e-16
4.3203212984711477e-16
1.3003596317645625e-15
3.798444716148377e-15
1.0462283082008791e-14
2.702199293418993e-14
6.556280440691801e-14
1.4996922285712478e-13
3.246856419820216e-13
6.682870013189234e-13
1.3152831789450954e-12
2.4967600643243896e-12
4.632216156841215e-12
8.560815310078838e-12
1.6125755032185015e-11
3.15769161188728e-11
6.471181275612009e-11
1.3742209271735116e-10
2.9642934424254415e-10
6.365021210772208e-10
1.3402431722705686e-09
2.7422717251065963e-09
5.426490679734561e-09
1.036353951037759e-08
1.9088844772835028e-08
3.390635380351504e-08
5.8076100424337e-08
9.590648025240342e-08
1.5263609832492923e-07
2.3398354914548862e-07
3.453125331022971e-07
4.905558408008996e-07
6.713900726893206e-07
8.876045055515739e-07
1.1399974232394598e-06
1.4371840424309853e-06
1.8071086901518165e-06
2.3126665115770883e-06
3.0688552213752886e-06
4.256948433301103e-06
6.13028239820439e-06
9.007255595767657e-06
1.3250276229837767e-05
1.9233817755446492e-05
2.7308648990564614e-05
3.777062482566749e-05
5.083991890295081e-05
6.665076072140265e-05
8.524501033420555e-05
0.00010655868668088412
0.00013039171079465463
0.00015635836565592144
0.00018382724450045665
0.00021187048945491658
0.00023924808877239925
0.000264450497597453
0.0002858113293816204
0.00030168400244016085
0.0003106570917615925
0.0003117685882065816
0.00030467409421589816
0.00028973038439204996
0.00026797258155352767
0.00024098618793686263
0.00021069821083414032
0.0001791284279814397
0.00014814811992597913
0.00011928822229815
9.362412291219306e-05
7.174504662147228e-05
5.3797705288825125e-05
3.9581156162656726e-05
2.866482485360085e-05
2.0504041265642137e-05
1.4534883039799045e-05
1.0239478021417691e-05
7.181363021536187e-06
5.016272222302187e-06
3.4863354191975296e-06
2.405604544267664e-06
1.6431133333721968e-06
1.1073685285384825e-06
7.340603253237793e-07
4.77272911939206e-07
3.036478937164746e-07
1.886718296313993e-07
1.1431541409748691e-07
6.74543656184813e-08
3.872022181620519e-08
2.1598182219915185e-08
1.1693174004599367e-08
6.1355704852364315e-09
3.1142890125758912e-09
1.5251366092266113e-09
7.179701078553701e-10
3.232160252047768e-10
1.381508850809394e-10
5.556785432397108e-11
2.0896487769320616e-11
7.474099145214567e-12
2.8568315028952357e-12
1.5459285675018665e-12
1.2805190720174948e-12
1.2283602355079364e-12
1.1432339804502462e-12
9.931318304384596e-13
8.072768185700334e-13
6.197962693500098e-13
4.534781613283232e-13
3.186181315504397e-13
2.1646382335048365e-13
1.4315600706999982e-13
9.279230740928994e-14
5.936235838615712e-14
3.773013474687457e-14
2.3958801944714158e-14
1.5257410583435917e-14
9.760204726926242e-15
6.271632694782329e-15
4.044981505251917e-15
2.6176965459658625e-15
1.70120951281256e-15
1.112658647696975e-15
7.344854641862274e-16
4.90701298615109e-16
3.3244092949192153e-16
2.2862970157282706e-16
1.5968140604838476e-16
1.1323740045240738e-16
8.140166986753897e-17
5.905840307544645e-17
4.2902433069519416e-17
3.087203893939024e-17
2.176641643879307e-17
1.4933980260994505e-17
1.0003015104122555e-17
6.674734430526407e-18
4.6082824243425304e-18
3.4082144955182023e-18
2.6945235113877925e-18
2.210267359136397e-18
1.9141466682875884e-18
2.018980555440449e-18
2.967766686878948e-18
5.3764575588672904e-18
1.0003388828615885e-17
1.7816822925348634e-17
3.021524599745255e-17
4.940602965609276e-17
7.886923603886867e-17
1.2373477786982126e-16
1.9080319407341276e-16
2.878769482820007e-16
4.2209033719608173e-16
5.970964951383663e-16
8.093623958181957e-16
1.0445056130719177e-15
1.275626543342699e-15
1.4669494486024278e-15
1.5877131963953552e-15
1.6429532324869574e-15
1.7291912557187018e-15
2.123367043695352e-15
3.4113698951103676e-15
6.6563271021764905e-15
1.3593675156489648e-14
2.6816687341910558e-14
4.987950697632022e-14
8.71939412559156e-14
1.4353625406500718e-13
2.2292808083967751e-13
3.266506195368954e-13
4.502690594118929e-13
5.799147539839913e-13
6.888974220304409e-13
7.372752851993295e-13
6.796101730756412e-13
4.89988521931503e-13
2.1827990351490072e-13
9.623993992069843e-14
7.129946664533085e-13
3.269566359013107e-12
9.889271490033998e-12
2.388830079519911e-11
4.978376361784582e-11
9.264322992570285e-11
1.5624247752817265e-10
2.396547353884089e-10
3.3295609420073615e-10
4.1592512732617315e-10
4.711016198200479e-10
5.376959952049516e-10
8.600572175900427e-10
2.228420138071852e-09
6.673283215313361e-09
1.8755080553919513e-08
4.777365196382383e-08
1.1127614614272947e-07
2.402156467062072e-07
4.859369534444292e-07
9.287690537145752e-07
1.6873410167377859e-06
2.926832294732576e-06
4.863353034212757e-06
7.76079325633504e-06
1.1916167861761326e-05
1.7630144618501547e-05
2.5161406184786237e-05
3.466683223980994e-05
4.6133852782318543e-05
5.931591597780103e-05
7.368565932389997e-05
8.84217641572387e-05
0.00010244350731251124
0.00011450114415405484
0.00012332071339490237
0.00012778981705897504
0.00012715845833866283
0.00012121888590952176
0.00011042371989714717
9.590529004020326e-05
7.937279707066915e-05
6.288704319363664e-05
4.8541356900402564e-05
3.810508574292403e-05
3.27039627768641e-05
3.261202542513873e-05
3.7209128225765186e-05
4.5119752545271134e-05
5.450293800076595e-05
6.34238376874422e-05
7.021756334513462e-05
7.37622349057847e-05
7.360792751746357e-05
6.995078532401154e-05
6.348241939469288e-05
5.5171265407582546e-05
4.603874341766304e-05
3.69805818810386e-05
2.8660196435209922e-05
2.147619950777066e-05
1.558771101995348e-05
1.0972734149134046e-05
7.495777206590857e-06
4.9677172825444276e-06
3.1895041284833706e-06
1.978534895848308e-06
1.1808973816448967e-06
6.742000207205857e-07
3.652791867821901e-07
1.8579004771401824e-07
8.737305405105345e-08
3.7150490240953784e-08
1.3803263126271656e-08
4.280094361308274e-09
1.1388796242537495e-09
5.024812151238414e-10
5.8469027248882e-10
7.075800892120314e-10
7.05023956278447e-10
5.998232962363091e-10
4.537725227174478e-10
3.1354937323781757e-10
2.0141186467890042e-10
1.2175077418999797e-10
6.98820091871176e-11
3.835583953063828e-11
2.0250783397985306e-11
1.0339125979821011e-11
5.129568380470637e-12
2.4845017718656725e-12
1.179860562299323e-12
5.514660539985713e-13
2.5448179189342075e-13
1.1619584212575286e-13
5.2555271179258037e-14
2.3552073454343145e-14
1.0453813115071907e-14
4.593558723348013e-15
1.9978537836923278e-15
8.604343546365674e-16
3.67872415773879e-16
1.573344946202084e-16
6.818037113712533e-17
2.998206265279318e-17
1.2899219721226225e-17
5.207187576255799e-18
2.3118026871995527e-18
1.6198413010276552e-18
1.2768820830984033e-18
5.511068157480609e-19
2.7329962451357506e-20
5.578761520825688e-19
1.443549464480742e-18
2.2640916965342572e-18
3.524975714603809e-18
6.286268865800194e-18
1.1784196572134954e-17
2.2533390518916074e-17
4.63826752451021e-17
1.0775378540964039e-16
2.784143740883846e-16
7.56341883590777e-16
2.051736921755851e-15
5.392124605690401e-15
1.3534655775264559e-14
3.225380615402286e-14
7.280353414637743e-14
1.555550543495173e-13
3.1479049852034635e-13
6.047907257229779e-13
1.1099303592704202e-12
1.9721507287882855e-12
3.4806651286334356e-12
6.345422704253031e-12
1.2437960877079669e-11
2.658839388879329e-11
6.054639149932971e-11
1.4102137565360678e-10
3.248754427027251e-10
7.260798432070771e-10
1.560902625690317e-09
3.219685443050873e-09
6.374688925991499e-09
1.2132093531556508e-08
2.2229365949553766e-08
3.926319909840508e-08
6.690620176956832e-08
1.100372134331301e-07
1.7468845681934314e-07
2.677377535434197e-07
3.96392131157234e-07
5.677551947609944e-07
7.891271758156109e-07
1.0700401696307988e-06
1.4271590421496878e-06
1.8928063825636724e-06
2.526817433006137e-06
3.4298058096825357e-06
4.75424885987211e-06
6.7089519060288214e-06
9.553280501189926e-06
1.3580358743033996e-05
1.909250707474328e-05
2.637579894073461e-05
3.5681623056228504e-05
4.722013506015802e-05
6.1163832097852e-05
7.765166949720022e-05
9.677900488157034e-05
0.00011855972867134996
0.0001428555726952023
0.00016928186877654283
0.0001971141020845662
0.0002252293768980405
0.00025211645267080767
0.00027597562625990036
0.00029490789727902735
0.0003071675707411934
0.0003114313976398363
0.0003070273683755696
0.00029407109300981504
0.00027347665941555393
0.0002468369810595963
0.0002161981468136821
0.00018377501541587407
0.0001516653141541229
0.00012161487610671036
9.486986477955404e-05
7.21286652264111e-05
5.358349398491393e-05
3.902546993969589e-05
2.79799017800885e-05
1.9840692290358726e-05
1.3981347592151187e-05
9.831302674577936e-06
6.916620645938754e-06
4.871330925771071e-06
3.4290216203571207e-06
2.404334900647394e-06
1.6719523354093992e-06
1.1478108386790625e-06
7.746575955545522e-07
5.12165264719049e-07
3.307975466031412e-07
2.0828135006870492e-07
1.2764224019527158e-07
7.604780216619843e-08
4.400807764641451e-08
2.4717148319901017e-08
1.3463847187818488e-08
7.107393297723402e-09
3.6327688088065007e-09
1.7959641718317098e-09
8.57778405915301e-10
3.953544313543995e-10
1.7579950227133177e-10
7.563740876707906e-11
3.188022574248779e-11
1.364416997973184e-11
6.402681657279793e-12
3.6250820367453105e-12
2.525534050925048e-12
1.993405978411775e-12
1.6287034604569369e-12
1.3123648284598867e-12
1.0242155720525924e-12
7.707861799940677e-13
5.597995098826776e-13
3.934564395643367e-13
2.686061979269817e-13
1.7885713269031846e-13
1.1668960059969623e-13
7.493891262101868e-14
4.758182345553127e-14
2.9981723837331266e-14
1.879991676292908e-14
1.1752229173572806e-14
7.333323488613566e-15
4.574793903416474e-15
2.8610329580262914e-15
1.8018245203908144e-15
1.1496681583123681e-15
7.479360065892683e-16
4.984526191451545e-16
3.4074905985119247e-16
2.383846705701169e-16
1.698111411249683e-16
1.223770805777631e-16
8.857551400129893e-17
6.384599391170866e-17
4.536681767343966e-17
3.140156850543532e-17
2.090865041060503e-17
1.3259202829083373e-17
8.01220489654285e-18
4.7531556658767196e-18
3.0170841313079808e-18
2.3012011491240808e-18
2.1451656630124556e-18
2.234532269853797e-18
2.4771367806759216e-18
3.017089913051819e-18
4.182825435859466e-18
6.4039170843517e-18
1.0162291108393983e-17
1.6053422094895196e-17
2.5012198148229757e-17
3.870269930353993e-17
5.998543508235992e-17
9.327330555908132e-17
1.4449316697704629e-16
2.2031961635184263e-16
3.2638851807700697e-16
4.643836077396038e-16
6.282727096254832e-16
8.005914409309013e-16
9.505497931960765e-16
1.0368553616657888e-15
1.0194433088832095e-15
8.856380045974646e-16
6.973678865979286e-16
6.663888197230556e-16
1.2631061995275792e-15
3.3599902523995105e-15
8.400511631143789e-15
1.8566178885564458e-14
3.68849601945888e-14
6.718325478892355e-14
1.1373481739240576e-13
1.8041827099780878e-13
2.691934434236261e-13
3.7780921366326917e-13
4.969690242392704e-13
6.078676368446478e-13
6.822938515845076e-13
6.89615442902674e-13
6.181001250093005e-13
5.22058586816693e-13
6.103680336432208e-13
1.3937361427835797e-12
3.902842247937652e-12
9.969181084314393e-12
2.2514200981175996e-11
4.571174123163522e-11
8.478433154124109e-11
1.4513495684621508e-10
2.3071196008130626e-10
3.4244960914734813e-10
4.803181420133898e-10
6.587323697631004e-10
9.576057349504257e-10
1.6540132843202164e-09
3.516471422645404e-09
8.398223738436364e-09
2.0336195670698188e-08
4.7437926336034203e-08
1.048948794407336e-07
2.1945390604718093e-07
4.3554907211572707e-07
8.229768786860252e-07
1.4854390236613752e-06
2.5684799145012447e-06
4.264404280769403e-06
6.810887571471149e-06
1.0479522049507169e-05
1.555087659465305e-05
2.2274150213688087e-05
3.0812339810894994e-05
4.1177850980827684e-05
5.316804664258683e-05
6.631431927823161e-05
7.986059014553702e-05
9.278640659373069e-05
0.00010388513143687407
0.00011189893383845844
0.00011570023131051269
0.00011449582856139127
0.0001080181704849053
9.666138837461403e-05
8.152154766954824e-05
6.431288180573324e-05
4.7154602726045386e-05
3.2252587763322214e-05
2.1529982927885206e-05
1.6281639761065642e-05
1.6931086750074295e-05
2.2951176547921967e-05
3.29729554816494e-05
4.5060943663183475e-05
5.709064582585772e-05
6.713921026667214e-05
7.38007419766822e-05
7.636316833970665e-05
7.482458167932393e-05
6.97696900394051e-05
6.215814429547952e-05
5.308831486978213e-05
4.359239315201651e-05
3.449774648040146e-05
2.6364496056104712e-05
1.948863179132196e-05
1.3948362817258522e-05
9.669331789880846e-06
6.489161319688382e-06
4.209684142909317e-06
2.632757193265335e-06
1.580826086583561e-06
9.059523062293086e-07
4.914237509130559e-07
2.492999808106839e-07
1.1613779823932934e-07
4.819913340646057e-08
1.682459320650964e-08
4.317054777263826e-09
5.051248302378225e-10
5.062442552303007e-11
4.813584860252999e-10
8.6316413941514e-10
9.819365827363241e-10
8.926776699558047e-10
7.051041848346627e-10
5.037129781633436e-10
3.329199853728885e-10
2.0653225185664703e-10
1.21479240708844e-10
6.826574202911632e-11
3.688147312209616e-11
1.9261662333404167e-11
9.773236496165955e-12
4.840528128035878e-12
2.3506296694422242e-12
1.123758640240903e-12
5.307339124565506e-13
2.4830778138951873e-13
1.153010285505545e-13
5.319313269727429e-14
2.439013103180896e-14
1.1114906196224855e-14
5.034312455193593e-15
2.267619517002989e-15
1.017697922528062e-15
4.567469147914707e-16
2.057294888811082e-16
9.283740182870969e-17
4.1654581613928595e-17
1.8750847281471442e-17
8.963920063172912e-18
4.671526577146939e-18
2.1894230667260778e-18
2.150453862867674e-18
9.782168940171962e-19
1.053493256040987e-18
1.1188612490927612e-18
9.175731811762142e-19
1.1776499821936713e-18
2.738215045659008e-18
6.218256088475565e-18
1.3071314509957088e-17
2.8171421021253196e-17
6.564784849417743e-17
1.6398943384192503e-16
4.2422406538235933e-16
1.099920236846966e-15
2.793839934865989e-15
6.851315700219245e-15
1.6068688504781668e-14
3.5811791113173715e-14
7.547887817214519e-14
1.4986188629270486e-13
2.795120191404353e-13
4.897453871425225e-13
8.12787364047019e-13
1.3148896179032644e-12
2.2163893904180158e-12
4.2754850708826366e-12
9.806896318089856e-12
2.5056935542630963e-11
6.521766542130482e-11
1.64205296407784e-10
3.925411861384388e-10
8.883670910885693e-10
1.9088650746970425e-09
3.9119343869032364e-09
7.679988903090495e-09
1.449702744560628e-08
2.638322108740735e-08
4.6374654669821365e-08
7.880962760595656e-08
1.2955648505973738e-07
2.0611541446093414e-07
3.17585777010856e-07
4.7464796101753813e-07
6.899676047219101e-07
9.797189568703514e-07
1.3670739795573677e-06
1.8882809368198558e-06
2.6011785318776302e-06
3.594704852770735e-06
4.996581800581951e-06
6.97564736110565e-06
9.736080615075909e-06
1.3503361089719371e-05
1.8505613178867958e-05
2.495734106349958e-05
3.305328097847438e-05
4.297659962694414e-05
5.4918133426132554e-05
6.909429318293867e-05
8.574487078362327e-05
0.00010509250859188699
0.0001272551397097407
0.00015211974951009105
0.0001792051249440594
0.0002075555638056466
0.00023571020092364402
0.00026178047512542856
0.00028364313256275497
0.00029922467200645196
0.00030682473116818354
0.00030540974866427215
0.0002948100683539085
0.00027577378438438534
0.00024986366530405985
0.00021922004422517016
0.00018624226551795434
0.000153256183093451
0.00012223220862696066
9.459994656134911e-05
7.117825662490961e-05
5.221208679315022e-05
3.7486886065126795e-05
2.648185897591315e-05
1.8524886608235804e-05
1.292159778908698e-05
9.044303228712427e-06
6.3790006809015024e-06
4.537553576554498e-06
3.2464266427005477e-06
2.3235817897092677e-06
1.6527293588271339e-06
1.1606874586144305e-06
8.003699054276342e-07
5.39584550185986e-07
3.545406900548324e-07
2.2655552574684965e-07
1.405926887933651e-07
8.465022748347756e-08
4.9421717589117605e-08
2.7969174961115963e-08
1.5340353681286775e-08
8.154091724833038e-09
4.2012672753813066e-09
2.0993119934716636e-09
1.0185061962641687e-09
4.809027269198307e-10
2.2201853985010136e-10
1.0115004838217605e-10
4.628368294796928e-11
2.1931388084609208e-11
1.1237196140100765e-11
6.475197261610883e-12
4.22471960931053e-12
3.0229447383556092e-12
2.267359521514159e-12
1.7204988281043334e-12
1.2932528373081157e-12
9.527789884899063e-13
6.848686939003739e-13
4.797467361232714e-13
3.2772532300141197e-13
2.1871849511726176e-13
1.4295353788113852e-13
9.17497117235878e-14
5.797571257224386e-14
3.614903722512647e-14
2.2280813255032523e-14
1.3595417843040694e-14
8.226768536439457e-15
4.950988856762042e-15
2.978672143985349e-15
1.8064969082228445e-15
1.1169536434300815e-15
7.125672399706518e-16
4.730438013984358e-16
3.2713866674130614e-16
2.340441962673452e-16
1.7115569766243099e-16
1.2625756890469986e-16
9.278204444825811e-17
6.712280464131734e-17
4.7220281272600414e-17
3.185066199748133e-17
2.025305961580065e-17
1.1899555422242073e-17
6.3332539960025246e-18
3.0655447084833943e-18
1.5436341188912028e-18
1.1889621273485525e-18
1.4844556210420934e-18
2.0698162544913127e-18
2.8002893117393844e-18
3.739795695654094e-18
5.090539347518947e-18
7.098280857729865e-18
1.0001569550728312e-17
1.4100429520061355e-17
1.999523171386427e-17
2.8986826583943904e-17
4.3540907068246484e-17
6.761999663689752e-17
1.0660293617805967e-16
1.6648079063155847e-16
2.520813741987063e-16
3.6427248172575037e-16
4.964574195497199e-16
6.312198441352688e-16
7.386920484097099e-16
7.7908546696707e-16
7.127880174035278e-16
5.224207169945132e-16
2.520991228021918e-16
6.953478479412364e-17
3.558876503164936e-16
1.8252938677442667e-15
5.668980391510449e-15
1.3705562143281366e-14
2.8497298086840256e-14
5.336106283236231e-14
9.216609531268344e-14
1.487804392875478e-13
2.2603192062543864e-13
3.241390727868051e-13
4.3882813018712506e-13
5.599118028776925e-13
6.721343781056257e-13
7.617789584923685e-13
8.35041029227934e-13
9.574772945485212e-13
1.3274850067519395e-12
2.3994438805898753e-12
5.071134782841379e-12
1.094077879415284e-11
2.2615789071373597e-11
4.401535103030554e-11
8.056529426954241e-11
1.3919622211029998e-10
2.2829507754782884e-10
3.5862266264148916e-10
5.484970572626843e-10
8.416966662149225e-10
1.3568586756594114e-09
2.405847956708052e-09
4.749347102278021e-09
1.010368467794666e-08
2.2073287241334977e-08
4.775054227382568e-08
1.0027985166303844e-07
2.0269002680726714e-07
3.932077036739461e-07
7.320140191944125e-07
1.3089460923296171e-06
2.250960364544026e-06
3.727326465934798e-06
5.949672418876949e-06
9.163433210577844e-06
1.362732751700385e-05
1.957856681007196e-05
2.7183827598491776e-05
3.647955938155903e-05
4.730953317808554e-05
5.927179989231943e-05
7.169021633615914e-05
8.362607474325908e-05
9.39420155283265e-05
0.00010142279282082106
0.00010494604230926217
0.00010368260945839438
9.729305689055926e-05
8.607834236950105e-05
7.104208166202723e-05
5.383196875527283e-05
3.654916267222418e-05
2.1443758923533542e-05
1.0545337591799786e-05
5.301189320675767e-06
6.302549795096767e-06
1.3165873745624938e-05
2.4602880591505292e-05
3.866779629191027e-05
5.312590210899177e-05
6.585788457822823e-05
7.520889458417407e-05
8.021097627922559e-05
8.064537598607189e-05
7.69542972288414e-05
7.00464351637063e-05
6.105792309247177e-05
5.1128024047263335e-05
4.123156454485509e-05
3.208614847009582e-05
2.413013099381619e-05
1.7552867702387932e-05
1.23535818263323e-05
8.407634535193679e-06
5.525630632320364e-06
3.4982275751981964e-06
2.125432168005475e-06
1.2326755490397934e-06
6.772678863053551e-07
3.487055174313647e-07
1.6553156590600384e-07
7.059347616863892e-08
2.585832685868371e-08
7.483170565085723e-09
1.5365542168791818e-09
5.603756156406289e-10
1.0075664465293153e-09
1.4789038351680917e-09
1.6130310906956137e-09
1.4575963380086518e-09
1.1587616488311274e-09
8.377115052648392e-10
5.618462060104892e-10
3.542255455960283e-10
2.1191662569691335e-10
1.211779400453939e-10
6.663038707131224e-11
3.541874620185696e-11
1.8292602270889645e-11
9.22338698599686e-12
4.56150780655238e-12
2.222624286875008e-12
1.0713500124651638e-12
5.126315572120834e-13
2.441339949847114e-13
1.1591153431920745e-13
5.490723828832399e-14
2.59516457872401e-14
1.2235558026290331e-14
5.753943675041476e-15
2.700206849219462e-15
1.265807060127109e-15
5.932025759134577e-16
2.7776557644548534e-16
1.299548259518457e-16
6.112276395809054e-17
2.9162538427314864e-17
1.3815904155674743e-17
5.9554065070584144e-18
8.731350555600687e-18
4.388813312136913e-18
2.5629505647368853e-18
1.2403424975138549e-18
2.4066154290371875e-19
1.9565087881042664e-19
1.3337951356447304e-18
3.435119913293974e-18
7.007965574389629e-18
1.5002206441750593e-17
3.5643391227997915e-17
8.953176047123041e-17
2.2809252628993856e-16
5.780046414077098e-16
1.439059893695975e-15
3.479231560525584e-15
8.080909261668046e-15
1.7865324041973597e-14
3.7287974244826235e-14
7.286079268445414e-14
1.3202373430492735e-13
2.19470276680675e-13
3.3177902473848377e-13
4.606405941367238e-13
6.425604940223591e-13
1.1575089268067458e-12
3.1085172325310895e-12
9.84469332876629e-12
3.0065476214127365e-11
8.402522734750439e-11
2.1515036642082516e-10
5.107757224555898e-10
1.1378754244027367e-09
2.4028208818655346e-09
4.848111380204901e-09
9.402403840240196e-09
1.760019843519511e-08
3.188029195285454e-08
5.5954859239528905e-08
9.521680097027833e-08
1.5713605749165935e-07
2.5161342127664026e-07
3.9134558517418824e-07
5.92421948203298e-07
8.755826161089664e-07
1.2686976659731667e-06
1.8108937207444793e-06
2.5581906205385005e-06
3.589528799780791e-06
5.010996923535782e-06
6.9555669270008995e-06
9.57645359630059e-06
1.3034692053878265e-05
1.748513240704765e-05
2.3068187819136457e-05
2.991513422573789e-05
3.817080720671818e-05
4.8029163218240624e-05
5.976682100468864e-05
7.375187834971842e-05
9.040489756599094e-05
0.000110098905803424
0.00013300461057875812
0.00015891045583146929
0.00018706635401765265
0.000216106631606921
0.00024409696413317717
0.0002687226137335757
0.00028759796105457615
0.0002986411557192082
0.0003004342809299213
0.00029248689436895087
0.0002753409404598324
0.0002504924233297742
0.00022014901972590176
0.00018688030045941578
0.0001532381096735644
0.00012142425604026905
9.306310061270815e-05
6.910546520433028e-05
4.98575562904791e-05
3.510326380036163e-05
2.427551377502008e-05
1.6632937561601363e-05
1.140869713437092e-05
7.913608209691868e-06
5.59055076981804e-06
4.027977630240145e-06
2.9457411396317467e-06
2.166977689211134e-06
1.5870622514150989e-06
1.1465703622344359e-06
8.112859451761201e-07
5.594348680858231e-07
3.7473821536544084e-07
2.4336819356045925e-07
1.5306866030552755e-07
9.319010573594556e-08
5.4909971225119104e-08
3.1317433139167564e-08
1.7295746469276e-08
9.255663769138134e-09
4.8048644895274076e-09
2.4241233265003922e-09
1.1920936251129938e-09
5.741242308773445e-10
2.72841033078634e-10
1.2944924341123764e-10
6.23876381628102e-11
3.1261921034614356e-11
1.671356568140779e-11
9.720708788831346e-12
6.16782846423724e-12
4.203382421687219e-12
2.9998134059624195e-12
2.1873198415005705e-12
1.5992683635453781e-12
1.1581902617308291e-12
8.247644758808028e-13
5.753330138676671e-13
3.925356047499244e-13
2.619131381695562e-13
1.710247992138285e-13
1.0940857001445252e-13
6.864562112252603e-14
4.228000080658625e-14
2.557995537228394e-14
1.5211732574995557e-14
8.902404189981602e-15
5.142732634637968e-15
2.9518044925264556e-15
1.7039941810619434e-15
1.0079995936422052e-15
6.247786919569704e-16
4.126651009463551e-16
2.9089052536086367e-16
2.1554354172024613e-16
1.6403398381450234e-16
1.2541324742990264e-16
9.466490009734584e-17
6.957130314331356e-17
4.9134368786425583e-17
3.2844145339254076e-17
2.0354495519570717e-17
1.1329735897239778e-17
5.363304036740789e-18
1.944237037767313e-18
4.73429950687509e-19
3.272726167909247e-19
9.491962927629142e-19
1.9349506936589304e-18
3.0754491065079783e-18
4.3359466075476966e-18
5.779339596369887e-18
7.4752676728892e-18
9.46217995315151e-18
1.183305289146863e-17
1.4987517297546242e-17
2.003208801657659e-17
2.922456355001888e-17
4.626794138832489e-17
7.619229355224377e-17
1.2455454959175866e-16
1.9577016973970129e-16
2.905932529098589e-16
4.030934216912878e-16
5.179308599135617e-16
6.092816364660827e-16
6.43384711608576e-16
5.873454399232646e-16
4.275166514540657e-16
2.0143629008803922e-16
4.776744911415386e-17
2.785543946387339e-16
1.4765635172806614e-15
4.6161925986180736e-15
1.119764276714709e-14
2.336904739050153e-14
4.3989573413136785e-14
7.656114278034204e-14
1.2493737975995754e-13
1.9272782105203974e-13
2.823940944963118e-13
3.942491085100644e-13
5.260180666717498e-13
6.744311088551179e-13
8.416429399284308e-13
1.0512567088533224e-12
1.381433475243067e-12
2.0258641581286812e-12
3.3967515027221412e-12
6.286266611566417e-12
1.2102404803795682e-11
2.3190072319140335e-11
4.3240399475121437e-11
7.779595265237644e-11
1.349292795292448e-10
2.264466231736749e-10
3.707649159574985e-10
6.005675919201312e-10
9.826181105614107e-10
1.6655649106985327e-09
2.9868577482488705e-09
5.695171764000891e-09
1.1382719464957504e-08
2.3272830687064315e-08
4.7566947345509376e-08
9.560689858087814e-08
1.871249111661343e-07
3.5479274924858594e-07
6.500901441881567e-07
1.1501418388783653e-06
1.964598896754067e-06
3.240897034621814e-06
5.165433362315674e-06
7.95758724713927e-06
1.1853384936493837e-05
1.7076317568120493e-05
2.3794644815684344e-05
3.2067525159303884e-05
4.178624968004514e-05
5.262104983257167e-05
6.398734233085916e-05
7.504657256418163e-05
8.475478237027106e-05
9.196586142649848e-05
9.558620156143164e-05
9.476439850136177e-05
8.908626170122899e-05
7.873526361401066e-05
6.45755899212255e-05
4.812226607098188e-05
3.138144058901193e-05
1.6571573373976144e-05
5.767206428679803e-06
5.327426856692833e-07
1.625434192853793e-06
8.838566546865088e-06
2.1027204817241848e-05
3.631621211132054e-05
5.244539183313429e-05
6.717307057641868e-05
7.864762048754848e-05
8.566962298161403e-05
8.780055321348154e-05
8.531564984164193e-05
7.903578147084719e-05
7.009538076970594e-05
5.9706880308215734e-05
4.896922841719095e-05
3.874621415228668e-05
2.961783810388072e-05
2.1891221721401846e-05
1.564937728087187e-05
1.0815940234490792e-05
7.2189320189883514e-06
4.643503844416345e-06
2.8698655933541354e-06
1.6969255060122388e-06
9.543769121729495e-07
5.06562980140576e-07
2.5112257547219944e-07
1.1474516933082635e-07
4.76809460549577e-08
1.8096600279919942e-08
6.948595074162016e-09
3.732797681448098e-09
3.2349528870425954e-09
3.238416491198871e-09
3.0406862960897843e-09
2.5837871276189123e-09
2.0041500193799752e-09
1.4385736334681077e-09
9.667343561182815e-10
6.137756331686799e-10
3.708327323436541e-10
2.1449429237945096e-10
1.1940130275019482e-10
6.428179163119165e-11
3.363098246655815e-11
1.7182206729736713e-11
8.615370133068423e-12
4.261034742287362e-12
2.0889322196992474e-12
1.0195503812032492e-12
4.971501733164513e-13
2.427444626957483e-13
1.1879468822457278e-13
5.825327031575956e-14
2.8594235215647816e-14
1.4032406901172909e-14
6.877526905057254e-15
3.3641748523584207e-15
1.6414884198116783e-15
7.985469187836854e-16
3.8735909083654776e-16
1.8752075436391695e-16
9.037721391587217e-17
4.27651012059142e-17
1.946755416726617e-17
3.031145578784494e-17
1.4776362978777407e-17
7.040365119758846e-18
2.729375291701015e-18
6.557555600505598e-19
4.680222152363206e-19
1.304215303384912e-18
2.191958761091156e-18
3.2942293643483454e-18
6.7895702660620554e-18
1.7640763121956257e-17
4.640414576821465e-17
1.1832799538988684e-16
2.964511502046101e-16
7.321151121050534e-16
1.764261449253339e-15
4.094988336534303e-15
9.052769531039954e-15
1.8865258808659905e-14
3.662315460322002e-14
6.518861165000956e-14
1.0392518265990593e-13
1.4292200013373265e-13
1.5955434581184766e-13
1.3879903191131375e-13
1.7922988566199175e-13
8.29465173295666e-13
3.948039280395855e-12
1.4621178067174874e-11
4.5052353510678185e-11
1.219520999191657e-10
3.000174358114524e-10
6.859687668309025e-10
1.4807761638854981e-09
3.0524225607105853e-09
6.057306146513478e-09
1.1633227741032885e-08
2.168727661747681e-08
3.929380160351653e-08
6.91997295575182e-08
1.1841288853954164e-07
1.9684073885514383e-07
3.17976892947503e-07
4.997184809600659e-07
7.655213542064697e-07
1.1461834280555727e-06
1.6824516495426993e-06
2.428242132980707e-06
3.4535443169511946e-06
4.845313576480541e-06
6.704403078375824e-06
9.137506818511122e-06
1.2245514914157445e-05
1.6113130377021817e-05
2.0807531105330023e-05
2.639407709340213e-05
3.297270685921571e-05
4.072954291632878e-05
4.9986685966418425e-05
6.122390328839597e-05
7.504435059329445e-05
9.206635249969546e-05
0.00011274435867046154
0.00013714930653314805
0.0001647627439838625
0.0001943503550291536
0.0002239721631379754
0.0002511580080330955
0.0002732345032570909
0.0002877458149539764
0.0002928792002515003
0.0002877981137411972
0.0002728045321115234
0.00024929300976245754
0.00021950981348074482
0.00018617625284506607
0.00015206311138416052
0.00011960628773488005
9.063380926403267e-05
6.623953693992308e-05
4.6800759457436e-05
3.210628317561878e-05
2.1545273221374834e-05
1.430626634241769e-05
9.54703320062926e-06
6.513318337537736e-06
4.6018185491124605e-06
3.3757098488550847e-06
2.547762741615507e-06
1.947035984830194e-06
1.4821471838141347e-06
1.1094021614709978e-06
8.094521665137611e-07
5.727118987504349e-07
3.9183371700183554e-07
2.58889368220792e-07
1.6511368540301574e-07
1.0165782033565399e-07
6.044448291210871e-08
3.4729920364154785e-08
1.930044534740885e-08
1.0387029363693311e-08
5.423362948269146e-09
2.754760288041035e-09
1.3668542490339374e-09
6.665812892066977e-10
3.223813911089658e-10
1.5656945103956005e-10
7.761154532291885e-11
4.0013806454224836e-11
2.1846868554719005e-11
1.2783491397079872e-11
8.026534889352166e-12
5.354025006292557e-12
3.729434687306822e-12
2.6623885883713337e-12
1.9163782975943897e-12
1.3738212714658016e-12
9.727045969457843e-13
6.766505055757028e-13
4.61100709049053e-13
3.0735453112441747e-13
2.0028195995149748e-13
1.2756173487155276e-13
7.939729564311454e-14
4.8276113094235963e-14
2.865498538918073e-14
1.6589921992437424e-14
9.364548824439998e-15
5.160732574425438e-15
2.7925131653293584e-15
1.5053580155149347e-15