# vtk DataFile Version 4.1 
COMMENT
ASCII
DATASET STRUCTURED_POINTS 
DIMENSIONS 300 300 1 
ORIGIN 0 0 0
SPACING 0.020943951023931952 0.020943951023931952 0 
POINT_DATA 90000
SCALARS U double 1
LOOKUP_TABLE default
1.757972265952169e-19
1.0667045227944078e-19
1.3024415558750687e-19
1.4770363519825664e-19
1.5218897042491889e-19
2.0626281492070757e-19
3.757281829680345e-19
7.142332475286886e-19
1.382666504151101e-18
2.9268291239860275e-18
6.74149618988059e-18
1.5611590951551526e-17
3.3575961731883827e-17
6.336192410292018e-17
9.963774977876394e-17
1.2058647449448218e-16
9.366076023414818e-17
3.452221902494141e-17
1.7330046666322192e-16
1.2401772285661247e-15
4.724828447326369e-15
1.273113078153072e-14
2.7066536546544993e-14
4.819629479635797e-14
7.745104413375444e-14
1.3032942936052948e-13
2.731214379288288e-13
6.974214815270231e-13
1.8516502284765256e-12
4.6774986499583775e-12
1.1104643281039134e-11
2.5231548950997554e-11
5.621222033783665e-11
1.250417054969053e-10
2.7972434955807207e-10
6.278398676757143e-10
1.4044630356811238e-09
3.1105149867955945e-09
6.78782155158737e-09
1.455072516849586e-08
3.058039239460553e-08
6.291760660028424e-08
1.2656925261953953e-07
2.486663879205616e-07
4.766446148892533e-07
8.905834190675082e-07
1.6208043029643647e-06
2.871391204294634e-06
4.949229880268668e-06
8.296270380275374e-06
1.351995742836413e-05
2.1413411850008585e-05
3.295368735559533e-05
4.926445788737753e-05
7.15303339153668e-05
0.00010085512426911827
0.0001380665314277573
0.00018348438136822604
0.00023668603901508733
0.00029631678523015073
0.00035999924671841805
0.0004243896922735837
0.0004854079719269042
0.0005386342010290521
0.0005798258549380866
0.0006054740780501483
0.0006132985632492143
0.0006025839362052984
0.0005742884777754852
0.0005309021277362985
0.000476083084839331
0.00041414693348865075
0.0003495075737190715
0.00028616991838678705
0.00022735240280386353
0.00017528100532347764
0.0001311567751711674
9.526602504177125e-05
6.718286851743314e-05
4.600929532377112e-05
3.06058588159493e-05
1.9781206401356217e-05
1.2425618420528529e-05
7.5881452662565755e-06
4.506537688167981e-06
2.6035777719509447e-06
1.463620202502094e-06
8.007326124626762e-07
4.2633870752679707e-07
2.2087242652052965e-07
1.112826363183695e-07
5.447843262970156e-08
2.587956263036313e-08
1.1909505802971468e-08
5.30081997164029e-09
2.281813569935768e-09
9.552237872147653e-10
3.9715768426143543e-10
1.732053747306283e-10
8.704533173946443e-11
5.406384724817e-11
3.994231952636335e-11
3.1892227821040385e-11
2.5740436202398416e-11
2.0428420506856536e-11
1.58334788766323e-11
1.200024093308726e-11
8.927045285588353e-12
6.544593354203083e-12
4.7446205867856665e-12
3.4097276625045104e-12
2.4322179801241217e-12
1.7224194443352577e-12
1.210079241971972e-12
8.422030137045393e-13
5.796426716191387e-13
3.9371359805420196e-13
2.633910902830841e-13
1.7320293068179054e-13
1.1172753979456698e-13
7.054248720130731e-14
4.347805827204664e-14
2.6068510856026163e-14
1.5133081240746554e-14
8.448315079110092e-15
4.490947730789521e-15
2.2389484697496937e-15
1.021279943642024e-15
4.075852640189016e-16
1.293275361020552e-16
2.465488569783409e-17
4.964881328712447e-19
6.84265233717463e-18
1.952929889036925e-17
2.895084447019447e-17
3.291601816975505e-17
3.2382888640650024e-17
2.9145640218248926e-17
2.477566964096562e-17
2.0297286802108334e-17
1.6229541441599017e-17
1.2756266981277252e-17
9.89290336826322e-18
7.596851846461081e-18
5.817396025803471e-18
4.505184587241274e-18
3.6063490743593114e-18
3.0599246294329506e-18
2.8061943889488897e-18
2.803255204346193e-18
3.0429445428031567e-18
3.556653324498547e-18
4.405920360840306e-18
5.660011529932869e-18
7.370130850623719e-18
9.554820341987099e-18
1.2211672546149497e-17
1.5366087582660432e-17
1.9158895573427844e-17
2.3962332688073842e-17
3.049957444900356e-17
3.992879438504861e-17
5.384173103411269e-17
7.412430521569206e-17
1.0264092657940508e-16
1.4074535312047642e-16
1.8870163500576301e-16
2.452316608506584e-16
3.0760399874529566e-16
3.729560902444803e-16
4.4191777612653183e-16
5.261129716141463e-16
6.618278650373168e-16
9.331974870994305e-16
1.5100025264145706e-15
2.7082938530678187e-15
5.088114709674425e-15
9.614891113566357e-15
1.79366998339138e-14
3.2883635834056384e-14
5.940968198147343e-14
1.0643910048491702e-13
1.905909797104359e-13
3.438393482405865e-13
6.294599568154531e-13
1.1754504302584355e-12
2.244721682406813e-12
4.382219058612504e-12
8.721363104751188e-12
1.761564553429549e-11
3.592133285460906e-11
7.355416060185704e-11
1.5047254878417872e-10
3.0614394224836956e-10
6.170186136787065e-10
1.2277832585974542e-09
2.4053761139187488e-09
4.6289310475306955e-09
8.7336093488986e-09
1.613061383080395e-08
2.9127476035515555e-08
5.136863636786648e-08
8.840196473815809e-08
1.483474622154841e-07
2.425966634173303e-07
3.864061371009829e-07
5.991743142104423e-07
9.041260554370827e-07
1.3271024562485887e-06
1.8941987074441482e-06
2.628140440511034e-06
3.5435498494215864e-06
4.641603238274355e-06
5.90495348301621e-06
7.294076286765138e-06
8.746273521505295e-06
1.017832975404198e-05
1.1493239237688945e-05
1.2590575313664026e-05
1.3379145533166666e-05
1.3789816254406798e-05
1.3786046815836945e-05
1.33699008027048e-05
1.2582100377646308e-05
1.1495891341432664e-05
1.0205802191142292e-05
8.81348584673907e-06
7.413460733091233e-06
6.081571003507571e-06
4.86835605769085e-06
3.798377416145884e-06
2.8751237890918027e-06
2.0897173176546664e-06
1.4306436257261047e-06
8.914710356636499e-07
4.742039485551103e-07
1.8743337290669878e-07
4.0349743517372364e-08
3.5261883370634586e-08
1.6183814678184299e-07
3.9553747981553356e-07
7.009030520283663e-07
1.038341015145988e-06
1.3716444707377817e-06
1.673457538094529e-06
1.9270603459203985e-06
2.1246280358342793e-06
2.263571810607511e-06
2.343057739367946e-06
2.3622360796111628e-06
2.32055175477797e-06
2.219413691146906e-06
2.063980070370261e-06
1.8639850921174892e-06
1.6331512221269776e-06
1.3874105239422405e-06
1.142589204574583e-06
9.122811495440723e-07
7.06426006703022e-07
5.3078181478894e-07
3.871943304786755e-07
2.74397608159544e-07
1.8904140812169622e-07
1.2669312011954347e-07
8.265494029615262e-08
5.253047715664231e-08
3.254587347094282e-08
1.967195195068736e-08
1.1609168536611418e-08
6.694259490873527e-09
3.774916523418738e-09
2.083436884091602e-09
1.126404918118937e-09
5.970766504441067e-10
3.105798517795147e-10
1.586775321343927e-10
7.969879975301887e-11
3.938946330112895e-11
1.9173391067052614e-11
9.200382775756618e-12
4.356070493673499e-12
2.0368237118288014e-12
9.413678705209612e-13
4.3040509603810045e-13
1.9482990951512885e-13
8.738209102247582e-14
3.885837934935225e-14
1.714461940652879e-14
7.509601947780677e-15
3.267323125335844e-15
1.4126943113861537e-15
6.071511975812432e-16
2.5939661498611763e-16
1.101986824920509e-16
4.66292652063073e-17
1.9729106608465048e-17
8.370521486323209e-18
3.526101071584343e-18
1.4201637473641478e-18
5.14408193032137e-19
9.377319766945222e-19
4.978954580632286e-19
3.077833303160268e-19
1.6331925549635361e-19
6.335088782692004e-20
7.940454354818352e-20
2.5074671084902957e-19
5.898921563828094e-19
1.1969087545691865e-18
2.4337097905550413e-18
5.1725101454226635e-18
1.1087696677070954e-17
2.263370636438513e-17
4.1929024239128676e-17
6.787495239071224e-17
9.301875450490069e-17
1.0845749911392192e-16
1.36487205606092e-16
3.154590004854677e-16
1.029350421819714e-15
2.9715247749808537e-15
6.885841439534372e-15
1.2744851362600158e-14
1.8737568690322788e-14
2.2039577989504174e-14
2.5555169754188193e-14
5.589921111592255e-14
1.957369490284045e-13
6.302256765575573e-13
1.7160248485003845e-12
4.132572625916069e-12
9.317078734100584e-12
2.0685582342209754e-11
4.6726730023873456e-11
1.0821590930209008e-10
2.542280275259473e-10
5.967752200009991e-10
1.3844194158883455e-09
3.1555069102376205e-09
7.048437529712433e-09
1.5409003025162226e-08
3.293505096649128e-08
6.874838788219854e-08
1.3998893751733096e-07
2.777756347197057e-07
5.366272384164453e-07
1.0085852322912054e-06
1.8431627740578702e-06
3.2736265371971443e-06
5.648747347712722e-06
9.46684561325115e-06
1.5405739117279773e-05
2.4338491127471265e-05
3.732159188352829e-05
5.554083565323699e-05
8.020239793301125e-05
0.0001123639299133234
0.00015271330656823048
0.00020131964421861112
0.00025739880581355867
0.0003191484413134556
0.00038370969974855633
0.0004472996474006775
0.0005055294532801746
0.0005538831136544152
0.0005882894229125018
0.0006056882457024422
0.0006044818227552629
0.0005847783787277162
0.0005483762279832558
0.0004984916133423299
0.00043928770212891595
0.00037530082159072076
0.0003108735865445266
0.00024969147401814496
0.00019448588784961275
0.00014692410145468416
0.00010766679167813843
7.654634402419601e-05
5.280776132550203e-05
3.5357686177915154e-05
2.2980972920077913e-05
1.4502318813921812e-05
8.887340091073523e-06
5.289795835116683e-06
3.0583028991672564e-06
1.7174920510566802e-06
9.367227609670701e-07
4.959696153760928e-07
2.5474151147652733e-07
1.2676462891627428e-07
6.099441314295264e-08
2.8292671894896663e-08
1.25961025174984e-08
5.348791504528921e-09
2.1484207210194064e-09
8.091162869352519e-10
2.859447251969876e-10
1.0005804014965111e-10
4.2713591263821513e-11
2.8555780484165068e-11
2.5743887015277546e-11
2.4127507994504242e-11
2.15035459121654e-11
1.8084998364398434e-11
1.4502688695230116e-11
1.1221530417091517e-11
8.462955953142376e-12
6.271026339744577e-12
4.5930517566006544e-12
3.338514240227551e-12
2.4132855058895538e-12
1.7355233993945605e-12
1.240435149390471e-12
8.793852637690315e-13
6.168280705909368e-13
4.2695468672546026e-13
2.908803952205732e-13
1.9458279280119835e-13
1.2750548875352868e-13
8.164505511878136e-14
5.0945647050228624e-14
3.087254686306071e-14
1.8086533789672726e-14
1.0179471761186945e-14
5.4545690006606805e-15
2.7453909756033445e-15
1.2707162130121588e-15
5.219049521274698e-16
1.7828942116993468e-16
4.543202579288083e-17
1.1194085939574623e-17
1.519738584637968e-17
2.811795505325734e-17
3.8078768618918386e-17
4.208643075311004e-17
4.096925487427271e-17
3.66551428181101e-17
3.092184823108622e-17
2.4991641328985885e-17
1.9541853834261557e-17
1.486505258216044e-17
1.1036290849369226e-17
8.030227862721608e-18
5.7818691646078786e-18
4.208397235235223e-18
3.2144898104590082e-18
2.697721492095256e-18
2.5607537098478367e-18
2.727892885029283e-18
3.1582618344988665e-18
3.847524946061452e-18
4.814397583020371e-18
6.075240556702056e-18
7.617270262339977e-18
9.385639409357818e-18
1.1299875638663183e-17
1.3310029461824743e-17
1.5492655964604425e-17
1.817264693735552e-17
2.2040882685509965e-17
2.822242646073165e-17
3.823946251953583e-17
5.381295460677556e-17
7.646446798766036e-17
1.0692355856467702e-16
1.4442589199514937e-16
1.8611175188744493e-16
2.2691248213811683e-16
2.605541748880466e-16
2.8263132800862377e-16
2.9714413003674e-16
3.2852637386518523e-16
4.421725871081437e-16
7.781267943809791e-16
1.605596672344362e-15
3.4117136207448643e-15
7.049397403856342e-15
1.3992357719746836e-14
2.6792673135833398e-14
4.9933884331669124e-14
9.147392369347643e-14
1.66290286604886e-13
3.0261251275348723e-13
5.553560418472895e-13
1.0336074951690383e-12
1.95762065897199e-12
3.777228329755934e-12
7.417183926162031e-12
1.4781677325070208e-11
2.97790965089978e-11
6.036877330960758e-11
1.2256452945201573e-10
2.480769713531937e-10
4.985054255672227e-10
9.909042372898259e-10
1.942341409410102e-09
3.744826536993208e-09
7.0865100695278675e-09
1.3139598877595186e-08
2.3838381538805728e-08
4.22693671432799e-08
7.31859137630917e-08
1.2363729360267883e-07
2.0366298410131333e-07
3.269460475322522e-07
5.112495845957021e-07
7.783909653759602e-07
1.1534633954518954e-06
1.6630246888623966e-06
2.3320707536157482e-06
3.179816290585578e-06
4.2146107744750065e-06
5.428678011159968e-06
6.793695017440365e-06
8.258405464340095e-06
9.749382974355166e-06
1.1175655203559416e-05
1.2437192340472052e-05
1.3436380043871161e-05
1.4090751853963796e-05
1.4344698320158164e-05
1.4177803484098525e-05
1.3607968892373728e-05
1.2688495751717887e-05
1.1499581903852172e-05
1.0135935643608972e-05
8.69309187701902e-06
7.255296271648096e-06
5.887398905697118e-06
4.632139250102481e-06
3.512747330572998e-06
2.539308399099903e-06
1.7162840711048691e-06
1.0483402075768517e-06
5.42377312165778e-07
2.0522367562992826e-07
3.8298049756426146e-08
3.192855078776718e-08
1.6228110215625478e-07
3.927990050789578e-07
6.800932825192873e-07
9.822364430701708e-07
1.266344443617535e-06
1.5126948092698171e-06
1.7142208501634673e-06
1.8722321823210292e-06
1.9906633178636836e-06
2.071419893159481e-06
2.1124961707615224e-06
2.1090594232668947e-06
2.0564060080121787e-06
1.9531309862329255e-06
1.8031082179450753e-06
1.6156471170693618e-06
1.4040203035356656e-06
1.1830901131888394e-06
9.668803613946706e-07
7.667318743939689e-07
5.903327181215944e-07
4.415963407973652e-07
3.211642452898445e-07
2.2724554193016478e-07
1.565370261955545e-07
1.050451156133024e-07
6.871577298659463e-08
4.384795900710371e-08
2.731208350040583e-08
1.6618225066513817e-08
9.88469123419265e-09
5.752101977718798e-09
3.2773452396052545e-09
1.829811381025583e-09
1.0019426152397973e-09
5.385195755084709e-10
2.8435200819685883e-10
1.476332376586549e-10
7.543333063614453e-11
3.7963983142701434e-11
1.8835869715675573e-11
9.220979121203762e-12
4.457707106330207e-12
2.12983467459884e-12
1.006526535233802e-12
4.708475725826338e-13
2.1818525193901517e-13
1.0022042776427799e-13
4.566141038581777e-14
2.0647142480376936e-14
9.270821481515558e-15
4.135435408043541e-15
1.8332879584838324e-15
8.079834487572551e-16
3.5422482121453097e-16
1.5462807440122737e-16
6.727606690752455e-17
2.914120426653121e-17
1.248428197204749e-17
5.231527687991344e-18
2.153668464707604e-18
3.795908132957547e-18
1.8019449151287286e-18
8.238866747292625e-19
2.7820012758320176e-19
2.7250327621121505e-20
3.875766950379824e-20
2.353072625990548e-19
5.337670566251628e-19
9.720010963686239e-19
1.8309758151472405e-18
3.764124383211248e-18
7.949485754565501e-18
1.61532158664772e-17
3.046224822235804e-17
5.2511060376314165e-17
8.306490844863426e-17
1.262768325748663e-16
2.0857738459704867e-16
4.230059283536675e-16
9.88335383179933e-16
2.249668669291705e-15
4.463776736915276e-15
7.238935178246941e-15
8.895055943214707e-15
6.95589383231161e-15
2.063458428552779e-15
7.388562186821472e-15
6.249166976932942e-14
2.458914528150158e-13
6.830369802569077e-13
1.5738927980700116e-12
3.340124171003112e-12
7.14113712241241e-12
1.6279255074983396e-11
3.955786474405367e-11
9.888870372781073e-11
2.4629658975473736e-10
6.017205594679738e-10
1.4357338812340154e-09
3.3454961918259175e-09
7.615600330126269e-09
1.692894642680838e-08
3.67100261737033e-08
7.755704687531248e-08
1.594544303544111e-07
3.187344885113877e-07
6.190141993031518e-07
1.1674426901938595e-06
2.1373526561995024e-06
3.7975464899124036e-06
6.546694401328275e-06
1.094852435610021e-05
1.7759782809112037e-05
2.793896224539381e-05
4.262074191199952e-05
6.304070437228162e-05
9.039904889316012e-05
0.0001256620468453802
0.0001693157521104035
0.00022110564706177624
0.0002798136959559553
0.0003431342498505689
0.00040770615151752664
0.0004693367324730735
0.0005234157786442105
0.0005654716015622782
0.0005917794253865509
0.0005999078155926697
0.0005890915677498535
0.0005603513127379387
0.0005163337808806589
0.0004609076111645176
0.00039860075047764095
0.0003339931778841696
0.0002711770283317841
0.00021336848361336262
0.00016271255387738577
0.0001202765491177641
8.61924039300702e-05
5.988886788436412e-05
4.0352739351432714e-05
2.6369817637697834e-05
1.6714668257042116e-05
1.0277308202651019e-05
6.130015869759357e-06
3.546622099868964e-06
1.9899874985939367e-06
1.0824064286135424e-06
5.703311522692854e-07
2.907778460492739e-07
1.431894889363459e-07
6.791582557258641e-08
3.089477990737561e-08
1.3389588032827861e-08
5.470517577628066e-09
2.070732319060008e-09
7.048822136887504e-10
2.0477051651995317e-10
4.7226583365109573e-11
1.1312064009479348e-11
1.0787150549273094e-11
1.5881958361398364e-11
1.8603499596284702e-11
1.8290728882816146e-11
1.610211179199114e-11
1.3197958265035283e-11
1.0320524526318265e-11
7.828028422694254e-12
5.827924761950618e-12
4.295173349919954e-12
3.1511141057355716e-12
2.3075669290890493e-12
1.6870935233007182e-12
1.2292646081702297e-12
8.899404947020939e-13
6.378965579360082e-13
4.5111577924096685e-13
3.137515315422601e-13
2.1400436777001104e-13
1.4279287351354877e-13
9.298105798637401e-14
5.893670095161534e-14
3.6257409566950074e-14
2.1568200538801303e-14
1.2345749560007156e-14
6.755559388356683e-15
3.502757667949216e-15
1.7011107851008953e-15
7.635895539580171e-16
3.1511263830064883e-16
1.2579284371892112e-16
6.170856065174741e-17
4.982229719109552e-17
5.384179490329033e-17
5.825687010175427e-17
5.828650767879225e-17
5.394121356785589e-17
4.681707669587351e-17
3.85903516335396e-17
3.0479419821087595e-17
2.3186280948123918e-17
1.7021678781418777e-17
1.2057525377940777e-17
8.242260609740167e-18
5.4676844440657794e-18
3.600018985621355e-18
2.4936372858058937e-18
2.0015000934554906e-18
1.9881812655156655e-18
2.3437548948243862e-18
2.992401357830304e-18
3.889512027565638e-18
5.005060086305267e-18
6.297522523539563e-18
7.689300500900562e-18
9.058810405548091e-18
1.0264136830569615e-17
1.1207316301577722e-17
1.1937158652396206e-17
1.2773385608661741e-17
1.44181745791892e-17
1.800632149550446e-17
2.5036620952407746e-17
3.713024696346086e-17
5.558330249472903e-17
8.072689743744132e-17
1.1118507644513144e-16
1.4323350678595252e-16
1.70614579932683e-16
1.8536461496485253e-16
1.8047195424220537e-16
1.555459001691535e-16
1.272083547838853e-16
1.4676788905580331e-16
3.2918738738617724e-16
8.999856041717728e-16
2.2716774883750435e-15
5.171003135216933e-15
1.0857279567716643e-14
2.151041339235668e-14
4.094425310735566e-14
7.595804414976082e-14
1.3896167621536715e-13
2.531808344117471e-13
4.631513264447969e-13
8.561599146581453e-13
1.6064685992303217e-12
3.066993089540448e-12
5.959333389879567e-12
1.1765474298608273e-11
2.3526402619958313e-11
4.7444827666461644e-11
9.603774152963312e-11
1.941923348326326e-10
3.904915610196821e-10
7.777786083343953e-10
1.5293188584258653e-09
2.9602278414711433e-09
5.627997394864855e-09
1.0490482490375944e-08
1.914341454572402e-08
3.416019830666931e-08
5.955111307889529e-08
1.0134286949466692e-07
1.6824857020081009e-07
2.7235005441511476e-07
4.296512877765618e-07
6.602920286850386e-07
9.88153847480064e-07
1.4395728497603584e-06
2.0409264167564427e-06
2.815010646213006e-06
3.7763777039225265e-06
4.926132330018281e-06
6.247028960702318e-06
7.699965739370738e-06
9.223027181788865e-06
1.0733995389642705e-05
1.2136706946818609e-05
1.3330849308941539e-05
1.4223932938954618e-05
1.4743472454992284e-05
1.4847088706551197e-05
1.4528453545923995e-05
1.3817751882202996e-05
1.2776484379288536e-05
1.1487701721075243e-05
1.004381132091008e-05
8.534626523159916e-06
7.038155814290197e-06
5.615760922223681e-06
4.3119633936003296e-06
3.157743737078549e-06
2.1751342413164957e-06
1.3806655883660428e-06
7.859519700874368e-07
3.951801235616975e-07
2.0093089076357734e-07
1.8086280275284264e-07
2.977426273212784e-07
5.040203464027167e-07
7.501291056628908e-07
9.938784741677921e-07
1.2076064376575649e-06
1.3805545422991606e-06
1.5158780349519336e-06
1.6238686490355863e-06
1.7143356379716258e-06
1.7910881821137343e-06
1.8502247010827475e-06
1.8821688789047383e-06
1.875952423807211e-06
1.8236891943133657e-06
1.7235616941656463e-06
1.5805723662533362e-06
1.405277000973819e-06
1.211327838746945e-06
1.0127890288682648e-06
8.21958795095122e-07
6.480540791967948e-07
4.967709395120658e-07
3.705226365743715e-07
2.690840503022831e-07
1.903936940877475e-07
1.3133196685392463e-07
8.836882940783771e-08
5.803642391376317e-08
3.722616307578182e-08
2.333618345851412e-08
1.4307007473713545e-08
8.584668098091323e-09
5.04527782633648e-09
2.906531308575735e-09
1.6426404698557054e-09
9.114699216935373e-10
4.969728576760636e-10
2.664854485516116e-10
1.406452753538335e-10
7.312179550611358e-11
3.747962756219579e-11
1.895496026745045e-11
9.46620965536979e-12
4.671898145382306e-12
2.2803568129132793e-12
1.1015908888223418e-12
5.270449097532657e-13
2.4990243780059545e-13
1.175053034408018e-13
5.4822413712999075e-14
2.53922501256097e-14
1.168135354150223e-14
5.339780920647573e-15
2.4265062259713496e-15
1.0966803144458103e-15
4.932156048476018e-16
2.2075868115861794e-16
9.825112620901532e-17
4.339440291062202e-17
1.9021528632653952e-17
8.365902647529239e-18
1.3845058184533829e-17
6.310726986413151e-18
2.7145934412604246e-18
1.0101964992435743e-18
3.523543289721181e-19
2.755087330441287e-19
4.162413598458019e-19
5.521491861504279e-19
7.070096134932697e-19
1.1858345213778823e-18
2.5636506904040186e-18
5.7141836078994636e-18
1.194930675154236e-17
2.3275471816958867e-17
4.27165997505211e-17
7.514234164623093e-17
1.3092901216719676e-16
2.376140459377611e-16
4.642207213363586e-16
9.494382859032856e-16
1.888550467601605e-15
3.3895687561062968e-15
5.138435231996199e-15
6.069945147616478e-15
4.796535685117384e-15
2.0341226556268347e-15
5.637921054126435e-15
3.607996579541073e-14
1.2643766902692603e-13
3.12257970761093e-13
6.236293176498373e-13
1.1340474271395575e-12
2.191760757185413e-12
5.070444374049696e-12
1.3501970889027668e-11
3.7143049016051145e-11
9.956225431827454e-11
2.5694960605948496e-10
6.414720958452747e-10
1.558516065695224e-09
3.695820648425557e-09
8.553960237439611e-09
1.9294930978734496e-08
4.23444801190259e-08
9.0287585121515e-08
1.8686518469587497e-07
3.7518287920666335e-07
7.30493444850572e-07
1.378952487831188e-06
2.5233239721087563e-06
4.475426986934994e-06
7.692893592990836e-06
1.2814460120068524e-05
2.0683840431172336e-05
3.234811351481833e-05
4.901404250004047e-05
7.194684800475327e-05
0.00010230264048431486
0.00014089897606445922
0.00018794687148545022
0.0002427884501527297
0.00030370100348647947
0.00036783328185401585
0.0004313272904823453
0.0004896471100055285
0.0005380900990511665
0.000572406498395468
0.0005894157813921047
0.0005874955591782594
0.0005668382613651373
0.0005294189989281744
0.00047868216868354464
0.00041901619433313284
0.0003551279193722464
0.0002914400122652525
0.00023161574361064665
0.00017827434809945713
0.00013291091917525953
9.599149764491349e-05
6.71664567588123e-05
4.553675283398014e-05
2.9915428536867962e-05
1.904457930490009e-05
1.1748659686344259e-05
7.022824648884437e-06
4.066877764662781e-06
2.280806722862642e-06
1.2380841425447916e-06
6.499263421323635e-07
3.294937893425735e-07
1.6099711422613698e-07
7.55860459663118e-08
3.393653313985426e-08
1.4463221675594648e-08
5.780120644147342e-09
2.1206135748077294e-09
6.858716782046876e-10
1.787203346098351e-10
2.8658263509295992e-11
3.0928104738390255e-13
4.625956010666964e-12
1.2308837738476507e-11
1.629319344437118e-11
1.6590545842814897e-11
1.473320420743022e-11
1.2057965781029167e-11
9.377500037117462e-12
7.070446151739314e-12
5.24422548337429e-12
3.867639132412114e-12
2.8562022320914343e-12
2.1186903347284594e-12
1.577775978064607e-12
1.17565765781751e-12
8.723330080255623e-13
6.412417281084499e-13
4.648065581224851e-13
3.309400332026226e-13
2.307335992163171e-13
1.571373174702717e-13
1.0431194340488398e-13
6.735954346718316e-14
4.222212087111067e-14
2.562564625530394e-14
1.5014568578138952e-14
8.46361047457147e-15
4.573634364104767e-15
2.364064911121047e-15
1.1726875826990006e-15
5.694517062524284e-16
2.8684899510763825e-16
1.6655013775059337e-16
1.203590718760648e-16
1.0288895056514255e-16
9.331072552275536e-17
8.378629927007634e-17
7.258970990993482e-17
6.03403205185807e-17
4.816953703434672e-17
3.699068693836839e-17
2.7327027753831928e-17
1.9370899166568856e-17
1.3100746120156426e-17
8.38109091782759e-18
5.0259979847707755e-18
2.832247681148294e-18
1.5957420747136392e-18
1.1222877780310793e-18
1.2378071682752049e-18
1.797074241319421e-18
2.686586514852074e-18
3.8172634602023115e-18
5.106198627042298e-18
6.452429356516666e-18
7.717502456199642e-18
8.725083282694683e-18
9.292943097235094e-18
9.304299221749157e-18
8.813899148636278e-18
8.168996413160809e-18
8.109243907548605e-18
9.79635469048953e-18
1.47188124020215e-17
2.4424113968954714e-17
4.0056079662856886e-17
6.172188903812066e-17
8.778536697252191e-17
1.1428079141097297e-16
1.3476618108975012e-16
1.410911473439432e-16
1.2575595705680612e-16
8.681815700669336e-17
3.6726635913375625e-17
1.715390387646076e-17
1.2308590820223739e-16
5.415528507839044e-16
1.61429938056222e-15
3.94109968290496e-15
8.554745161100926e-15
1.7226915392828762e-14
3.302044297310287e-14
6.13176012136188e-14
1.1178882761703482e-13
2.022562243789351e-13
3.6643985434151497e-13
6.69767391362509e-13
1.242068925332197e-12
2.345708644075377e-12
4.5177643777777965e-12
8.865291708993662e-12
1.7671960075600556e-11
3.562485659273538e-11
7.224613352540396e-11
1.4660044595766785e-10
2.9616991216938867e-10
5.931081618332215e-10
1.1730924616839173e-09
2.2848499482967454e-09
4.372171158102552e-09
8.204563513495989e-09
1.507680443675672e-08
2.709985565546084e-08
4.760317772966734e-08
8.16577195056849e-08
1.3670559072137937e-07
2.2324335433561126e-07
3.554506796531839e-07
5.515901214617853e-07
8.339404588484999e-07
1.2279876429735714e-06
1.760612694620459e-06
2.4571130986278945e-06
3.337089887212141e-06
4.409518345384372e-06
5.667652614122334e-06
7.084713492028212e-06
8.611470956040745e-06
1.0176759213753797e-05
1.1691595115874778e-05
1.3056929638192113e-05
1.4174259215121119e-05
1.4957550913849104e-05
1.5344417906541164e-05
1.530440905302223e-05
1.4842733574401347e-05
1.3998664654143925e-05
1.2839040735512408e-05
1.1448395892497281e-05
9.917972959751502e-06
8.335966422370074e-06
6.780746427965508e-06
5.317695878115908e-06
3.999018171500801e-06
2.864914581554582e-06
1.944291744537144e-06
1.2537933700577976e-06
7.952351026073933e-07
5.528920389172299e-07
4.928470284347853e-07
5.662585363363185e-07
7.169542703528053e-07
8.917883786845067e-07
1.0506557903065352e-06
1.1727659696037627e-06
1.2569987856844961e-06
1.3164037096345346e-06
1.369139597505227e-06
1.4293632922111455e-06
1.5012643440492522e-06
1.577867802064269e-06
1.644211243127101e-06
1.6829675785264072e-06
1.6800894181708092e-06
1.6285840645985113e-06
1.5296337062984199e-06
1.3913655871100342e-06
1.2262356593459142e-06
1.0481071649489184e-06
8.698285744501207e-07
7.016908997122152e-07
5.507778958717446e-07
4.210094051824305e-07
3.136136548198039e-07
2.277940536749274e-07
1.6142226394966354e-07
1.1165524376068612e-07
7.54252298510428e-08
4.9787322783062343e-08
3.213278894637284e-08
2.029033583952837e-08
1.2544218378736154e-08
7.598524063715507e-09
4.513103659463808e-09
2.6303816360963953e-09
1.5055711789939892e-09
8.469678158992885e-10
4.686624639398803e-10
2.55284739099136e-10
1.3699440274284692e-10
7.248246894522852e-11
3.783990739919364e-11
1.9506678128146653e-11
9.93699118858348e-12
5.005854662841452e-12
2.4954923374854808e-12
1.2319120709434165e-12
6.02595392857673e-13
2.922514815248415e-13
1.4061074152206452e-13
6.714910975409938e-14
3.1844522511112503e-14
1.500381044047725e-14
7.0263976495545495e-15
3.271991152016383e-15
1.5156214977670228e-15
6.984390375443338e-16
3.2015996684283515e-16
1.4599578892518875e-16
6.635078642616933e-17
3.02087369981195e-17
4.8334274545160726e-17
2.2270422136142364e-17
9.984229866408417e-18
4.378951667656959e-18
2.0774282735716213e-18
1.2690668625109841e-18
9.20564507571725e-19
5.918389971350428e-19
3.4532498331094283e-19
5.53544437175735e-19
1.6831002728548446e-18
4.250414885123357e-18
9.1144104292174e-18
1.810724392809839e-17
3.4863583693510407e-17
6.608577708065864e-17
1.2473426210742429e-16
2.3808064210805603e-16
4.627174033075527e-16
9.004811307598874e-16
1.6889043697748813e-15
2.9171686938524415e-15
4.44427001438224e-15
5.7590564906591524e-15
6.339406472187878e-15
7.151712270795625e-15
1.327048075901095e-14
3.551539070156616e-14
8.661269310888463e-14
1.6896194195312095e-13
2.6273607506847106e-13
3.471604264868516e-13
5.185899199185069e-13
1.3027718127198844e-12
4.333555748950917e-12
1.3837150628886035e-11
4.017695906410838e-11
1.0876939436363218e-10
2.82233069173833e-10
7.129859095247364e-10
1.7618566837098883e-09
4.252892126878827e-09
9.996816765681717e-09
2.2821125052550195e-08
5.051083268092068e-08
1.0830235548123706e-07
2.2487644626811662e-07
4.521165387186688e-07
8.801211812090141e-07
1.6588797533794877e-06
3.027347679600182e-06
5.349059050464071e-06
9.150636322903795e-06
1.5155613393302371e-05
2.4301398594128484e-05
3.772318131818501e-05
5.668704538910331e-05
8.245778084855381e-05
0.00011609678248529209
0.00015820239612987866
0.00020862694036812035
0.0002662261107022936
0.00032870988360291875
0.000392661485988114
0.0004537676427288324
0.0005072605186182571
0.0005485184867680561
0.0005737240495059232
0.0005804492762962095
0.0005680436335419572
0.0005377378579576023
0.0004924409189272484
0.00043627693360692005
0.00037396479620204517
0.00031016997971409707
0.00024895028359740343
0.00019338107914356294
0.0001453945277405331
0.00010581725881210023
7.455481836339848e-05
5.0854987919463376e-05
3.358498313810324e-05
2.147372116526571e-05
1.3292033449825779e-05
7.964043896786575e-06
4.617659570625425e-06
2.589870992961714e-06
1.4042141302882653e-06
7.353468198631632e-07
3.7143327235175144e-07
1.8062032401275896e-07
8.43202680568997e-08
3.763266883516418e-08
1.5955145176980612e-08
6.3617795346232395e-09
2.3466285894068556e-09
7.785179073746145e-10
2.21275854783438e-10
5.072053688304356e-11
1.2432714403026585e-11
1.1089956313379682e-11
1.5326083025440086e-11
1.7248108734105496e-11
1.6397026650248998e-11
1.3978623962125342e-11
1.110029526523492e-11
8.421185145559102e-12
6.221752609911913e-12
4.548443706490655e-12
3.3331352192286903e-12
2.470083471564176e-12
1.8573068756634874e-12
1.4138243094715615e-12
1.0827837502024192e-12
8.277766142363228e-13
6.269771041359954e-13
4.676245366197491e-13
3.4188608184335046e-13
2.4424549824987224e-13
1.7013022806632413e-13
1.1536161100808265e-13
7.60535918360507e-14
4.869243850616893e-14
3.024143392443722e-14
1.8200953774473508e-14
1.06086898618519e-14
5.991754015350147e-15
3.290867563524361e-15
1.7752684363615197e-15
9.614899596200972e-16
5.433568906474885e-16
3.3598598933730383e-16