# vtk DataFile Version 4.1 
COMMENT
ASCII
DATASET STRUCTURED_POINTS 
DIMENSIONS 300 300 1 
ORIGIN 0 0 0
SPACING 0.020943951023931952 0.020943951023931952 0 
POINT_DATA 90000
SCALARS U double 1
LOOKUP_TABLE default
2.2928522619549773e-19
5.179455370713211e-19
1.17215128785264e-18
2.4739997756598956e-18
5.122182515263562e-18
1.0654114977527906e-17
2.21972572552585e-17
4.604611344823935e-17
9.490890582559287e-17
1.9428245424358255e-16
3.9468991067925246e-16
7.949010532311421e-16
1.5853458638703111e-15
3.1277172299868856e-15
6.097748779427878e-15
1.1735269444439479e-14
2.2270854214769818e-14
4.163306715465961e-14
7.658386162092455e-14
1.3847732101109835e-13
2.458756189241731e-13
4.2825905368377817e-13
7.309869720486356e-13
1.2214335350593551e-12
1.9957630449062413e-12
3.1851124075251045e-12
4.959186607934802e-12
7.52491035320791e-12
1.1118425869275564e-11
1.5990449809671033e-11
2.238617868787183e-11
3.05178691541976e-11
4.051791933026415e-11
5.234764679738806e-11
6.564200655277575e-11
7.95228057806743e-11
9.252076476225094e-11
1.0284963801559796e-10
1.0922979532975479e-10
1.1212118215616571e-10
1.146424437432684e-10
1.2201640304943211e-10
1.387199470993601e-10
1.639967530931844e-10
1.8850289127240463e-10
1.960835208243834e-10
1.7336780223041672e-10
1.2577572862954604e-10
9.38609025469333e-11
1.625547117996458e-10
4.6078010892052476e-10
1.1593495660099865e-09
2.486249510537179e-09
4.784348455901059e-09
8.634541148398788e-09
1.5060542787068085e-08
2.5827304187288667e-08
4.384936690645489e-08
7.373756387812219e-08
1.2252254196030375e-07
2.0058584447475787e-07
3.227879444917386e-07
5.09698213241334e-07
7.887062599999566e-07
1.1946445153833978e-06
1.769413730409625e-06
2.560030459829782e-06
3.614575509381033e-06
4.9757768658848675e-06
6.672437856404957e-06
8.709581763809072e-06
1.1058898915559044e-05
1.3651640614236409e-05
1.6376262370203028e-05
1.9082684073155175e-05
2.159395912773227e-05
2.3724587867765005e-05
2.5303034345999113e-05
2.6194684452557704e-05
2.6320953601746154e-05
2.5670752097987777e-05
2.4301982388467117e-05
2.2332810839159063e-05
1.992457429399303e-05
1.7259787098186448e-05
1.451941855607018e-05
1.1863309775513133e-05
9.416479944082609e-06
7.262523241727367e-06
5.443762825465809e-06
3.96666825810219e-06
2.810447260966945e-06
1.9366945214201473e-06
1.2983794421888167e-06
8.4707395180079e-07
5.379608288214741e-07
3.326800041504725e-07
2.0039824536321456e-07
1.1762643957007034e-07
6.730099793760977e-08
3.755044414324303e-08
2.0439369770079124e-08
1.085852769362192e-08
5.632836876245484e-09
2.8546027340720927e-09
1.4139700916679293e-09
6.848941131995929e-10
3.245628574540102e-10
1.5053924337748228e-10
6.836354320918218e-11
3.0403071964929716e-11
1.3241699828017008e-11
5.646893806563856e-12
2.3565578579000145e-12
9.61475153198303e-13
3.8299932387255287e-13
1.4871597676659146e-13
5.621841058017578e-14
2.070682539219827e-14
7.481452432102826e-15
2.705659991670529e-15
1.0237175115596992e-15
4.351084839923123e-16
2.238993223323757e-16
1.4550564660473962e-16
1.1863229290701392e-16
1.1448350031453558e-16
1.2006935630461904e-16
1.2764753930203997e-16
1.3234450504411069e-16
1.3170052747209898e-16
1.252901805404516e-16
1.14113213109612e-16
9.989387284290007e-17
8.447083089589175e-17
6.938430382113964e-17
5.568071406235078e-17
4.389572946844002e-17
3.4150112233348604e-17
2.6292723953318678e-17
2.0040443054384024e-17
1.5085552351387636e-17
1.1160233898811476e-17
8.061530869370574e-18
5.647709419511969e-18
3.819301040676584e-18
2.496802210698058e-18
1.6035965728933573e-18
1.0584060155685731e-18
7.774686857095951e-19
6.834899010177749e-19
7.168066567148304e-19
8.443989227811149e-19
1.0641583459967939e-18
1.4045081855598146e-18
1.922085527684723e-18
2.7017822100469665e-18
3.8633301979876776e-18
5.5766092135140574e-18
8.084180440594047e-18
1.1724703782480026e-17
1.6945468937119843e-17
2.428696469830362e-17
3.43183530514166e-17
4.75020907307309e-17
6.397285047636062e-17
8.323720599100599e-17
1.0384641526348752e-16
1.23178203320836e-16
1.375990000206929e-16
1.4347685547912955e-16
1.3977788344387662e-16
1.3328449996691993e-16
1.4776555316975153e-16
2.3860316678208796e-16
5.142867700026083e-16
1.1656439951045911e-15
2.502552675821494e-15
4.99618850115543e-15
9.322959499807567e-15
1.6405027907611153e-14
2.7443215103893034e-14
4.394313513527994e-14
6.774662351945876e-14
1.010989051322454e-13
1.4680589208326218e-13
2.0855967621667427e-13
2.915225263215276e-13
4.032448118961121e-13
5.54933865499523e-13
7.629795300036354e-13
1.0504865916541309e-12
1.4484015279079428e-12
1.995719744672943e-12
2.7383051660260358e-12
3.726102803808165e-12
5.008918591027797e-12
6.6311944990445994e-12
8.625730139401011e-12
1.1004305793983037e-11
1.3739254489308222e-11
1.672579800372129e-11
1.971725662099228e-11
2.2252212824506688e-11
2.3684211811792943e-11
2.3660253047689382e-11
2.392641036884442e-11
3.345432884459204e-11
8.111932772725292e-11
2.445155003004072e-10
7.117475992944028e-10
1.908202417439082e-09
4.747046197655966e-09
1.1106973563408013e-08
2.471099363695467e-08
5.2681667591978063e-08
1.0818031948837671e-07
2.1468433104313367e-07
4.1257600185947407e-07
7.6873151894459e-07
1.3895942574792093e-06
2.4376532388796225e-06
4.150199295336966e-06
6.857654466443246e-06
1.0996792633509457e-05
1.711217796342263e-05
2.583782328336211e-05
3.7851316931821526e-05
5.3795388175163415e-05
7.416761232189737e-05
9.918742708508316e-05
0.0001286594365775375
0.00016186056658788896
0.00019748277941801482
0.00023365982841163627
0.00026809452557404937
0.0002982833654561999
0.0003218121278092899
0.0003366754253553562
0.0003415615694641469
0.0003360461720311867
0.00032065435830781075
0.0002967786385407348
0.0002664701790903034
0.00023214704300426365
0.0001962771613884256
0.00016109335903897933
0.00012838420934439313
9.938295197636474e-05
7.475383428115361e-05
5.465694527395461e-05
3.886240243702158e-05
2.6883178552274413e-05
1.8101054650545484e-05
1.1869044492326447e-05
7.583034101362772e-06
4.723054625231801e-06
2.8694863868967764e-06
1.7015606679091225e-06
9.85433745939582e-07
5.577434606565027e-07
3.08728474265959e-07
1.6725607376100153e-07
8.875638538381995e-08
4.617450669979033e-08
2.3571425378267255e-08
1.1818689348539797e-08
5.8262978447195215e-09
2.826918652731442e-09
1.3514512474712513e-09
6.372757580433337e-10
2.967310411092328e-10
1.3657162408999956e-10
6.219380328677742e-11
2.80487673301707e-11
1.2537366944288028e-11
5.558012246988394e-12
2.445083748641141e-12
1.0678632436375433e-12
4.631503512120188e-13
1.995297474781341e-13
8.539547870800577e-14
3.631101075213289e-14
1.533979592720615e-14
6.437859123423429e-15
2.6838863654430063e-15
1.1116060109383692e-15
4.576290755213078e-16
1.872618631729158e-16
7.599376945487269e-17
3.047731422348308e-17
1.2139527047139984e-17
4.917487887707747e-18
2.0439180881765574e-18
7.92233413360331e-19
2.2907446834523823e-19
6.145443689174662e-20
9.247641756707863e-20
1.4115010848492239e-19
1.5397697895634124e-19
5.1594798993662765e-20
2.356464681382395e-19
5.784966689375281e-19
1.1714609741007476e-18
2.4203758722379575e-18
5.2110465709494124e-18
1.126982712351023e-17
2.413501911226038e-17
5.12661666410467e-17
1.0821410436377918e-16
2.2682166092534193e-16
4.713967256337814e-16
9.70174550729896e-16
1.9752260847530825e-15
3.974040984696723e-15
7.892708828813678e-15
1.545684504281257e-14
2.9815263750132265e-14
5.658508007007059e-14
1.0554410937218905e-13
1.9326765521070605e-13
3.470575237674804e-13
6.104936156507116e-13
1.0507771056691092e-12
1.7676367842994216e-12
2.9028739686073846e-12
4.6486836680556435e-12
7.251977141444094e-12
1.1011466972625858e-11
1.626445989732548e-11
2.3360466698210167e-11
3.2617207149508905e-11
4.425049437994805e-11
5.826712651546378e-11
7.432232336026567e-11
9.158641987306654e-11
1.0873609597481655e-10
1.2423122408623834e-10
1.369587401105057e-10
1.4704376402428545e-10
1.5623028353113808e-10
1.670485729280761e-10
1.8044854857674056e-10
1.9281709046923707e-10
1.947191897010865e-10
1.7405612993653187e-10
1.2455049022645327e-10
5.687558118695814e-11
6.592354812241125e-12
3.3433858764046206e-11
2.1197827420497983e-10
6.225670985702896e-10
1.3587200693331338e-09
2.5687686029891685e-09
4.544483821866969e-09
7.862972383175259e-09
1.358757785265657e-08
2.3543880696660902e-08
4.070609843193277e-08
6.974763493622528e-08
1.178132286958091e-07
1.9554539348312066e-07
3.1833481918597776e-07
5.076594740510789e-07
7.922357079351594e-07
1.2085462719439157e-06
1.8001748951734122e-06
2.6153275638158625e-06
3.7020329576088955e-06
5.100852814675417e-06
6.835511844735438e-06
8.902603905234533e-06
1.1262271605820943e-05
1.3832237662854133e-05
1.6487529462759937e-05
1.9067521302430983e-05
2.139055217368846e-05
2.327462649092676e-05
2.45610271380622e-05
2.5136579488293988e-05
2.495019672831059e-05
2.4020330895167563e-05
2.2431830560800612e-05
2.032296424452841e-05
1.7865390942813366e-05
1.5241117071562206e-05
1.2620699333415953e-05
1.0146184018495712e-05
7.920835656228677e-06
6.0060601620648235e-06
4.42450657188173e-06
3.167428338404131e-06
2.2040923081117696e-06
1.4912547668586873e-06
9.812843711579007e-07
6.281809313077431e-07
3.913375700288386e-07
2.373176117920781e-07
1.4013924330336383e-07
8.060949170071753e-08
4.518147134681361e-08
2.4685373121986905e-08
1.3151879347593614e-08
6.835565295414712e-09
3.46716627692065e-09
1.7169905829964533e-09
8.304934113984239e-10
3.9252013652456856e-10
1.8135317126307544e-10
8.194069793133698e-11
3.6219965141511375e-11
1.5668023944338686e-11
6.634572619697381e-12
2.7505251872992133e-12
1.1164443164770491e-12
4.4364699392418055e-13
1.7257474905623252e-13
6.573537224689903e-14
2.4562231928104817e-14
9.049419689147166e-15
3.325649485442934e-15
1.2453705045967941e-15
4.919416533920347e-16
2.1742823470462995e-16
1.1982079647039925e-16
9.214810643312141e-17
9.404038836814346e-17
1.0735905222976848e-16
1.2217054577383475e-16
1.3277388258007993e-16
1.3650831283405208e-16
1.3302894830798556e-16
1.2353319885009348e-16
1.099806663346528e-16
9.444555449401364e-17
7.868736993607194e-17
6.394899586941508e-17
5.0936638039083473e-17
3.991305718576309e-17
3.0837842681012503e-17
2.350533689139142e-17
1.7652026069198383e-17
1.3023862177146551e-17
9.406852268960949e-18
6.631004363297562e-18
4.5595907805537294e-18
3.074358900266004e-18
2.0642388920861747e-18
1.4213362034899932e-18
1.0443606316482735e-18
8.468243559158252e-19
7.659097739268134e-19
7.681656430172652e-19
8.499942407079834e-19
1.033607989082056e-18
1.3617827916467325e-18
1.8962963935842037e-18
2.7246712705021768e-18
3.977480109969736e-18
5.854245336079911e-18
8.650451400473839e-18
1.277216359395749e-17
1.8719162935052138e-17
2.7013733341635746e-17
3.805256577448264e-17
5.186755174724668e-17
6.780360586443505e-17
8.416662739617016e-17
9.797277499173608e-17
1.0505196170733765e-16
1.0093060322795266e-16
8.313728676045083e-17
5.581578312844549e-17
3.773577678246198e-17
7.486295355252611e-17
2.584430374959967e-16
7.489036771510251e-16
1.8046583198966355e-15
3.81313721581579e-15
7.319426049410923e-15
1.3046628210894723e-14
2.190298529973104e-14
3.4975953136895175e-14
5.352499816749565e-14
7.900413009924826e-14
1.1317101354471152e-13
1.583666812486648e-13
2.1806781236807857e-13
2.9780660291112234e-13
4.0650388837224677e-13
5.581566214816132e-13
7.736627491205344e-13
1.0823805703069799e-12
1.5228581080121483e-12
2.142096539452645e-12
2.9927697794972068e-12
4.127954448623724e-12
5.5928999887558865e-12
7.412750524571618e-12
9.573423479123229e-12
1.199005311183279e-11
1.4455275559363092e-11
1.6564038281874606e-11
1.763648615657506e-11
1.6734169561662792e-11
1.3041184311553579e-11
7.261588636591092e-12
5.459121430605576e-12
2.8306321825766078e-11
1.3173504727874135e-10
4.508274103770068e-10
1.2898013517459676e-09
3.300903587782317e-09
7.829355376560288e-09
1.7556875056510216e-08
3.765890879041005e-08
7.780241622415836e-08
1.554430246099724e-07
3.010042667973904e-07
5.655806246649049e-07
1.031709815482496e-06
1.8273899927553145e-06
3.142752922203336e-06
5.247569637374421e-06
8.506104362653301e-06
1.3383988599511627e-05
2.0440257227362942e-05
3.0297205425700733e-05
4.358212174766207e-05
6.0838887328582155e-05
8.241401911259054e-05
0.00010833019860532811
0.00013816884325862987
0.00017098919063831218
0.00020531185288780645
0.0002391878721136654
0.0002703598417604418
0.00029650200602724915
0.0003155060344426987
0.0003257641457516563
0.00032639648382562655
0.0003173776248597789
0.0002995365999371406
0.000274431029304397
0.00024412190556577095
0.0002108943628621592
0.0001769768909589527
0.00014430602147145514
0.00011436829102766529
8.813141589636184e-05
6.605772046251747e-05
4.8179293459505564e-05
3.420813842546185e-05
2.3655389424720152e-05
1.5939430880494222e-05
1.047077302037272e-05
6.709343350903772e-06
4.1958520311537755e-06
2.56244744007016e-06
1.5291621887379027e-06
8.922769965968162e-07
5.094402074934305e-07
2.848074070123875e-07
1.5603048232479653e-07
8.383440844655599e-08
4.4214357534206705e-08
2.2909935468955887e-08
1.1673767938821177e-08
5.855234278189728e-09
2.8936789152505473e-09
1.4104486378537343e-09
6.787142907791208e-10
3.227358469366939e-10
1.5178302083653704e-10
7.065942303526552e-11
3.258415038249391e-11
1.4893932382025192e-11
6.7516919237536264e-12
3.0367302856124497e-12
1.3556245798265254e-12
6.007936050265235e-13
2.64390519548028e-13
1.1554628614032974e-13
5.015167823821219e-14
2.1619513770921835e-14
9.256592304071702e-15
3.936776121742041e-15
1.6632232788285398e-15
6.978819967199244e-16
2.9062905811924405e-16
1.2012001430296814e-16
4.942012620603055e-17
2.032241054035336e-17
8.280579117420648e-18
3.2355105171431112e-18
1.2052823302443018e-18
5.13708375263958e-19
3.045056401629722e-19
1.66651592330177e-19
4.6261693766947855e-20
5.0491792583243255e-20
1.874220399038617e-19
3.1935218996949416e-19
5.020733789798473e-19
1.046135259850588e-18
2.449021467973708e-18
5.554682522053271e-18
1.2225728855791081e-17
2.670942483162366e-17
5.820558079073644e-17
1.2608127830190414e-16
2.7071994339602016e-16
5.755440062240987e-16
1.2104943117342826e-15
2.516079471946565e-15
5.1625750977389366e-15
1.0444560938892809e-14
2.0811428204884633e-14
4.079494531438394e-14
7.857864915519781e-14
1.4855713194378722e-13
2.753378660902111e-13
4.997000165782038e-13
8.869636534308802e-13
1.537923252116205e-12
2.601838718292991e-12
4.289895900776994e-12
6.8861431770734476e-12
1.0751466154707244e-11
1.631500431323832e-11
2.4046598401096125e-11
3.440314036821937e-11
4.7741595060409715e-11
6.419559820011179e-11
8.352887928132826e-11
1.0501430806151967e-10
1.2743266889896935e-10
1.4929767287747965e-10
1.6932605228982963e-10
1.8695256044837769e-10
2.0243730978687196e-10
2.1608687716506105e-10
2.2658665847934471e-10
2.29391504631445e-10
2.1695935603588323e-10
1.823830882523581e-10
1.2610968124928851e-10
6.262229461418549e-11
2.22567089765869e-11
4.4950151540705316e-11
1.6811444938199516e-10
4.175360638722917e-10
8.140232546779181e-10
1.406557542577838e-09
2.3362617706564003e-09
3.930203501678891e-09
6.8266452043056255e-09
1.2147052677493782e-08
2.175187824317583e-08
3.863821353650414e-08
6.75470598315534e-08
1.1583633193108826e-07
1.9463473982125035e-07
3.202145904772015e-07
5.154040486258391e-07
8.107056701923088e-07
1.2446208156909156e-06
1.862549189697495e-06
2.7136166129243233e-06
3.84496898050319e-06
5.293516241854909e-06
7.075804943700488e-06
9.177521402389468e-06
1.1544850492961588e-05
1.4080247708454855e-05
1.6644871844280074e-05
1.9068872757926443e-05
2.1169072714404278e-05
2.2771706928316344e-05
2.3736337233946478e-05
2.397633782198435e-05
2.3471774438279682e-05
2.2272015407523452e-05
2.0487631501439763e-05
1.8273445072985827e-05
1.5806345498481306e-05
1.3262261104975895e-05
1.0796353763748252e-05
8.529295177051146e-06
6.540827317459808e-06
4.870190953995265e-06
3.521811245811061e-06
2.474049010168481e-06
1.6888460497120304e-06
1.1205484146347019e-06
7.228546800576255e-07
4.534964733049676e-07
2.767731031077427e-07
1.6437178582537426e-07
9.501943524601318e-08
5.3482277638539646e-08
2.931922139488636e-08
1.565941085804539e-08
8.151117019409107e-09
4.136370399958914e-09
2.047052445126717e-09
9.883241506556738e-10
4.656878690778683e-10
2.1423764684056776e-10
9.62733751704446e-11
4.2282855292016904e-11
1.8161567078556136e-11
7.635032571652439e-12
3.144360546409214e-12
1.2698781601356496e-12
5.034655331917137e-13
1.9616198739950854e-13
7.51816623404512e-14
2.8366345373992255e-14
1.0540987965155804e-14
3.855063703939054e-15
1.3818496911087975e-15
4.810363136864222e-16
1.6384989488998855e-16
6.529310234729507e-17
5.0480694476293667e-17
6.735677368840437e-17
9.351623490416178e-17
1.179768431805666e-16
1.3523841896849851e-16
1.4321521260100152e-16
1.421579298219909e-16
1.3376368152350883e-16
1.2037894327710014e-16
1.043704934526833e-16
8.772154444616926e-17
7.185057589544178e-17
5.7604095798718e-17
4.53555919977229e-17
3.5147104008197193e-17
2.6827047073659946e-17
2.0158498517685464e-17
1.4889669808425864e-17
1.0789965996712969e-17
7.660885560648405e-18
5.332459959747919e-18
3.6546463929789475e-18
2.4903785906536407e-18
1.7137159440158873e-18
1.2133430404428913e-18
8.99152230409335e-19
7.083493885910119e-19
6.078046889735411e-19
5.911476728829238e-19
6.717901931071491e-19
8.756804440245367e-19
1.2390923488205803e-18
1.816340265088282e-18
2.699673585479814e-18
4.048985602109677e-18
6.123038506765647e-18
9.297621187773607e-18
1.405061238294335e-17
2.0890888752349326e-17
3.020968730602635e-17
4.204287498810731e-17
5.575563494087107e-17
6.970403309543684e-17
8.099853811299814e-17
8.559999508733082e-17
7.91219905815201e-17
5.888845006557574e-17
2.797685494592582e-17
2.1119407470064686e-18
2.0270026306782358e-17
1.5957852569826426e-16
5.543968483503376e-16
1.4182279905345175e-15
3.0653625404552703e-15
5.927230880154758e-15
1.0557157695122503e-14
1.7618024075542968e-14
2.785227597618652e-14
4.204498960220302e-14
6.10098244962452e-14
8.565405281298913e-14
1.1720801374170867e-13
1.5772666447872335e-13
2.1097146084424232e-13
2.837417727445192e-13
3.8763128885375243e-13
5.410323399871061e-13
7.710153436131575e-13
1.1145100696875528e-12
1.618061592518953e-12
2.335361074609723e-12
3.321727669535415e-12
4.624594254246846e-12
6.268566578013472e-12
8.232573818726884e-12
1.0415318658951416e-11
1.2585438896788962e-11
1.4319307616444746e-11
1.4952376946873427e-11
1.3628442103178675e-11
9.659392763257584e-12
3.669052988822666e-12
5.120995203725623e-13
1.598488136202772e-11
9.139225793821823e-11
3.2410216704766376e-10
9.301179583116803e-10
2.3694259710352937e-09
5.590883489831164e-09
1.2496430539807782e-08
2.679032790695982e-08
5.547130380749135e-08
1.113399844333872e-07
2.1701264896236792e-07
4.1101495718109343e-07
7.565074490189894e-07
1.3529724395031476e-06
2.3506601682863193e-06
3.966661809435993e-06
6.500135130341407e-06
1.0342587553261736e-05
1.597756064100743e-05
2.3963123583788935e-05
3.489098957054683e-05
4.931850410766948e-05
6.767457863195813e-05
9.014756176536393e-05
0.00011657087442202283
0.00014632894424763466
0.0001783090569545337
0.00021092198525997857
0.00024220466072970574
0.00027000267909928276
0.00029221218893698647
0.00030704438181957495
0.00031326629480505404
0.0003103724554699772
0.00029865376779916866
0.0002791503956673881
0.0002534990610110527
0.0002237059316845662
0.00019188889692657327
0.00016003486462224666
0.00012980933932499756
0.00010244026704525868
7.868067794737604e-05
5.8839535474514444e-05
4.286045206441599e-05
3.042456513410304e-05
2.1056043358868047e-05
1.421442688600634e-05
9.365016346897298e-06
6.024930456758853e-06
3.7871234821438185e-06
2.3272503246263702e-06
1.3990355313557307e-06
8.232971405617556e-07
4.746047203814406e-07
2.6821070322638607e-07
1.487049795900021e-07
8.095286713539262e-08
4.3307406112335676e-08
2.2787306249811482e-08
1.1803503972051255e-08
6.024302066204073e-09
3.032287150068823e-09
1.5065552883034612e-09
7.394714672072183e-10
3.5886451661290944e-10
1.7232105599647564e-10
8.192958877689492e-11
3.8592239947028756e-11
1.801949343296201e-11
8.343714827827365e-12
3.832722870714819e-12
1.7470771867814396e-12
7.904445406657429e-13
3.550251333105596e-13
1.5831741276536914e-13
7.010024667506499e-14
3.082231988656101e-14
1.3458501945034443e-14
5.836133471154203e-15
2.5131488764065134e-15
1.0745812779872032e-15
4.563699056588957e-16
1.9266539153088342e-16
8.083028563391272e-17
3.355554264011097e-17
1.372181054409656e-17
5.615601486820168e-18
2.4068866821918826e-18
1.058447952429548e-18
3.766983059918117e-19
6.290144952224451e-20
3.45321805418013e-19
2.917870210131345e-19
1.8061054939674743e-19
1.324337224548013e-19
4.029033069912763e-19
1.1687937497724846e-18
2.7052769769209138e-18
5.9588271513660906e-18
1.3362702930582433e-17
3.021634787816933e-17
6.782210193534196e-17
1.5058400214486995e-16
3.309548386630786e-16
7.198344124154009e-16
1.5475523609593535e-15
3.2842348880538072e-15
6.871943271520873e-15
1.4160543790299385e-14
2.8702830433778357e-14
5.71599715349944e-14
1.1169963881822772e-13
2.1392757195204007e-13
4.0104423724944197e-13
7.349836022296927e-13
1.3151364122979744e-12
2.294703614228688e-12
3.899587851619734e-12
6.446934478956184e-12
1.035810870754548e-11
1.6158419653372757e-11
2.4453844640288294e-11
3.587417106509162e-11
5.0973915592664993e-11
7.009035900248718e-11
9.317674967119355e-11
1.1965961714762993e-10
1.4840002594652588e-10
1.778355023033999e-10
2.0629917725680534e-10
2.3235086644222627e-10
2.5480568380371716e-10
2.722020499278478e-10
2.8186789152374386e-10
2.794039074238165e-10
2.5979098117417834e-10
2.2078027361572816e-10
1.675541604702167e-10
1.157096822335273e-10
8.912211547043898e-11
1.1157069996975592e-10
1.9571948044245651e-10
3.374965079797631e-10
5.247553284447223e-10
7.650026101842045e-10
1.1304732787766725e-09
1.815500188067517e-09
3.206190109750957e-09
5.977161188824573e-09
1.1250652830602157e-08
2.0872645725826103e-08
3.7871754401972665e-08
6.716423664947555e-08
1.1654728865905728e-07
1.9797488607306825e-07
3.2902470376598405e-07
5.343325543944507e-07
8.465981502574091e-07
1.306586563131353e-06
1.9614322284900445e-06
2.8605917778535766e-06
4.049080387094355e-06
5.55820589624122e-06
7.394829253978538e-06
9.531047518705338e-06
1.1896831448256684e-05
1.437824338738237e-05
1.68231984504681e-05
1.9055313616987255e-05
2.0894490529177183e-05
2.218100445947897e-05
2.279861067775039e-05
2.269198908350453e-05
2.1874876107096454e-05
2.042723919977191e-05
1.848227467920894e-05
1.620616778738865e-05
1.377486636511637e-05
1.1352302055819505e-05
9.073621142479009e-06
7.035430739401216e-06
5.293331067821538e-06
3.865555127470788e-06
2.740664655197791e-06
1.8870268741742656e-06
1.262104054385793e-06
8.202066932249627e-07
5.180573705169327e-07
3.1810685008159547e-07
1.899422899458985e-07
1.1031514202905108e-07
6.233372282139751e-08
3.427626695449105e-08
1.834649879055531e-08
9.561110261122843e-09
4.852509077179338e-09
2.399049195095219e-09
1.1557089454260246e-09
5.426687319097597e-10
2.4846820303538115e-10
1.1098924439128778e-10
4.8402438304012334e-11
2.06272867219255e-11
8.601256987290888e-12
3.515229605368078e-12
1.4109631011490902e-12
5.575257073334288e-13
2.1736886519713223e-13
8.375678831771471e-14
3.1893029173085594e-14
1.1957776410407096e-14
4.3673531177907285e-15
1.514270401260682e-15
4.692855977144706e-16
1.119174715310306e-16
1.5111639328151216e-17
1.5304495607626153e-17
4.8219594655491275e-17
8.715220762547038e-17
1.2035426592342073e-16
1.4290627621250122e-16
1.536344871133712e-16
1.5362095203952507e-16
1.451927083438072e-16
1.3112961636527318e-16
1.140822418283073e-16
9.621815137642838e-17
7.907913139586438e-17
6.359773619809065e-17
5.020817697410409e-17
3.899252073845556e-17
2.9820080685787773e-17
2.24571871593133e-17
1.6640524921926118e-17
1.2117602438502389e-17
8.662929671167598e-18
6.079593704503766e-18
4.194719644115192e-18
2.8549327956787823e-18
1.9250912683574052e-18
1.2907353661091305e-18
8.624234988635702e-19
5.78940097201541e-19
4.066432955216238e-19
3.339327587069241e-19
3.624089743351722e-19
4.988118087794569e-19
7.532108306417158e-19
1.1483583960642056e-18
1.7422925148421138e-18
2.6614538892587572e-18
4.1355264105022645e-18
6.519045886497722e-18
1.0279931645261118e-17
1.59331605707472e-17
2.3900980175076735e-17
3.4292236069288277e-17
4.6616396684530115e-17
5.948743879741573e-17
7.04340918725444e-17
7.60203458940885e-17
7.259441261845277e-17
5.811810766477386e-17
3.565907629587397e-17
1.9207771109426555e-17
4.242812748521427e-17
1.7064795584808382e-16
5.15704489977677e-16
1.2520737348995657e-15
2.6310471923855423e-15
4.987869824549645e-15
8.735466254448707e-15
1.4339001105550973e-14
2.2269969674696102e-14
3.294898193092124e-14
4.6704550328243174e-14
6.380087974140474e-14
8.461732953997882e-14
1.1008746655657993e-13
1.4251279251651723e-13
1.868380547454725e-13
2.523951768183983e-13
3.549829333076137e-13
5.189569493344391e-13
7.787866760142084e-13
1.1793342886358687e-12
1.773961233434582e-12
2.6194707823816883e-12
3.76678716780153e-12
5.246055926108327e-12
7.044542783508997e-12
9.075802837954155e-12
1.11406972646094e-11
1.2888598982917652e-11
1.3807414379997757e-11
1.3315580887164364e-11
1.111793001815577e-11
8.157280415889978e-12
8.821947755612131e-12
2.572565526863096e-11
8.972695588425024e-11
2.7064265587063706e-10
7.197162914594869e-10
1.7556676941291876e-09
4.035627966573583e-09
8.885198244645222e-09
1.8913508174546748e-08
3.9113431284045566e-08
7.87432641727938e-08
1.5439350282113557e-07
2.9473372993101316e-07
5.474603758799907e-07
9.888516140362676e-07
1.7359878592208781e-06
2.9610250459871993e-06
4.905865692287314e-06
7.894211809052982e-06
1.2336515877943404e-05
1.8722180478668697e-05
2.7593078147949546e-05
3.9493715713263194e-05
5.4896639847998645e-05
7.410702067281453e-05
9.715710794390767e-05
0.00012370798371829687
0.00015298067863927443
0.00018373912032637236
0.0002143420410010003
0.00024286979737218368
0.0002673168072998188
0.00028582443629622864
0.00029691698479592584
0.00029969879287055484
0.00029397544242449323
0.00028027597225062416
0.00025977263840264343
0.00023411504360804067
0.00020521126349496913
0.00017499620191791052
0.00014522560416816487
0.00011732439676051057
9.230369425531997e-05
7.074599207627264e-05
5.284623579164066e-05
3.848965457109868e-05
2.7345801354301516e-05
1.8961101367456818e-05
1.2837576454365795e-05
8.491421638830755e-06
5.49032848516201e-06
3.4720930527080357e-06
2.148950556951762e-06
1.3025168432652645e-06
7.736689632651361e-07
4.506592345841359e-07
2.57621477215165e-07
1.446399426583035e-07
7.981956891311135e-08
4.3330814812962794e-08
2.315837138739719e-08
1.2195583139966575e-08
6.333421226060295e-09
3.2461355081519927e-09
1.643338307468113e-09
8.223228769197441e-10
4.070189811965368e-10
1.9939795409758596e-10
9.674076828058036e-11
4.650512865028669e-11
2.2160762140643915e-11
1.0471825551684677e-11
4.908496999376694e-12
2.28282923350025e-12
1.05362525890975e-12
4.826786303450439e-13
2.1950615394246615e-13
9.910592891617207e-14
4.442782341012673e-14
1.9775980349939256e-14
8.741015617125046e-15
3.836642863172744e-15
1.6725273263828742e-15
7.242317798707136e-16
3.1137428096462753e-16
1.3279183239132817e-16
5.622828891114491e-17
2.3789326248931443e-17
1.009449184449618e-17
4.178573839703314e-18
1.5842182406012785e-18
5.867578254438918e-19
1.4847587120615242e-18
6.767824587186719e-19
1.6477694890004927e-19
5.166758771738979e-21
2.324360351376842e-19
6.715147335671885e-19
1.2958082417454507e-18
2.699257969984802e-18
6.365996281562112e-18
1.5194112194365668e-17
3.5384953782484956e-17
8.112022627132243e-17
1.8438396583817292e-16
4.153027253560364e-16
9.247204761610663e-16
2.0321506654040896e-15
4.402708680071561e-15
9.393337330658811e-15
1.9711864235172895e-14
4.0634422530421154e-14
8.217918383692342e-14
1.6284119776651955e-13
3.157354309027612e-13
5.982064037304402e-13
1.1060014215121755e-12
1.9927383906252654e-12
3.4943314364405377e-12
5.955997926186419e-12
9.856380204238833e-12
1.5819483602303668e-11
2.4601429946966914e-11
3.703703984704066e-11
5.3933482627414894e-11
7.59080743531079e-11
1.0318780173793036e-10
1.3541774121110961e-10
1.715512121308243e-10
2.0988895644504923e-10
2.482701909621128e-10
2.843034424862028e-10
3.154405575612977e-10
3.3877776510655256e-10
3.507853443992194e-10
3.475706227504559e-10
3.2635751326935886e-10
2.8821082645247434e-10
2.407221608359163e-10
1.9826810703873638e-10
1.7782915072223138e-10
1.908629942189258e-10
2.353794768976644e-10
2.946991323408761e-10
3.480771223045156e-10
3.934316780786157e-10
4.770070563484045e-10
7.237602437681266e-10
1.3689535729197074e-09
2.8053391882752276e-09
5.677276506371816e-09
1.1068064376842089e-08
2.0836529627275433e-08
3.8162380708060917e-08
6.83547243394898e-08
1.1995660356776463e-07
2.0612547780291639e-07
3.4616785551932377e-07
5.669476796878139e-07
9.036890796473308e-07
1.3995082583721357e-06
2.102927390517896e-06
3.0627539117022567e-06
4.320135991423547e-06
5.898335383424442e-06
7.791674149597773e-06
9.95596144231676e-06
1.2303159268950527e-05
1.470280078154916e-05
1.6991597586614755e-05
1.8990903121322663e-05
2.0529662354033236e-05
2.1468777045787146e-05
2.172202882975666e-05
2.126916132004107e-05
2.0158368147575964e-05
1.8497816616397942e-05
1.6438268603313207e-05
1.4150656999738757e-05
1.1803188396148346e-05
9.542087674524419e-06
7.478747860483e-06
5.684288288747826e-06
4.190875852058548e-06
2.9980137426086923e-06
2.0815144968522748e-06
1.4029971877727878e-06
9.182847007614637e-07
5.837800814408282e-07
3.6055932519720376e-07
2.1640101323283652e-07
1.2623836760320986e-07
7.159155640235888e-08
3.947785799081369e-08
2.1171128337887358e-08
1.1043471506020568e-08
5.604132502269964e-09
2.7670953268166667e-09
1.3296399517107658e-09
6.219302880970363e-10
2.8326499106753625e-10
1.2569149566308018e-10
5.437686587102147e-11
2.2962720897982055e-11
9.481548804167076e-12
3.837385383162111e-12
1.5271801049187904e-12
5.999870658927642e-13
2.336587560298234e-13
9.049933071152113e-14
3.4885682735074145e-14
1.3324164748864394e-14
4.973102056828627e-15
1.758536841246461e-15
5.506476057873784e-16
1.2939610568511313e-16
1.4894460245420154e-17
1.5932895435558465e-17
5.4820843463707135e-17
9.922768839105728e-17
1.3570850644665594e-16