# vtk DataFile Version 4.1 
COMMENT
ASCII
DATASET STRUCTURED_POINTS 
DIMENSIONS 300 300 1 
ORIGIN 0 0 0
SPACING 0.020943951023931952 0.020943951023931952 0 
POINT_DATA 90000
SCALARS U double 1
LOOKUP_TABLE default
1.194189772744343e-19
9.007519231719093e-19
2.2680224852787404e-18
4.591117109898788e-18
9.751300449437432e-18
2.235922972831216e-17
5.2382327893522234e-17
1.2163320476885296e-16
2.789489711052609e-16
6.342065781712232e-16
1.4323209309380538e-15
3.2110788922025197e-15
7.13330133359946e-15
1.567551660323899e-14
3.402699092682568e-14
7.286303191013078e-14
1.5370153913731938e-13
3.1898798699726305e-13
6.506393350611783e-13
1.303474039692702e-12
2.5646741380791106e-12
4.9590342587411695e-12
9.43593174134966e-12
1.7704135153237183e-11
3.2833675948577394e-11
6.03265878311017e-11
1.0995886406672358e-10
1.9875110137588648e-10
3.552674434244944e-10
6.247541552351626e-10
1.0729789394369578e-09
1.7837273811099082e-09
2.841216986478378e-09
4.286402399667887e-09
6.040151447560831e-09
7.804077063643046e-09
8.989171587668714e-09
8.785983015828084e-09
6.568741829306643e-09
2.8951206099319866e-09
1.389580567195137e-09
1.1757922241349234e-08
5.4085955625698534e-08
1.6448836288340234e-07
4.0218584257130645e-07
8.582514673852273e-07
1.6664997516030223e-06
3.0170166330999666e-06
5.1722105175894665e-06
8.483595728979642e-06
1.3404717756480248e-05
2.0492232767843235e-05
3.038444013921224e-05
4.374634494660451e-05
6.117434721518103e-05
8.306274876901666e-05
0.00010944751025053113
0.00013985697184103305
0.00017320966362319837
0.0002078005299711216
0.00024140520041810617
0.00027150748594596726
0.00029562314087487065
0.000311662389390183
0.0003182554341029984
0.00031496709376311607
0.00030235043653774443
0.0002818285708666587
0.0002554364318041113
0.0002254867925043237
0.0001942370097747904
0.00016362288084342854
0.0001350991075125308
0.00010959297411291303
8.755009898814499e-05
6.903586158142401e-05
5.38548762324867e-05
4.1660109670647175e-05
3.203681948665143e-05
2.4558730831010422e-05
1.8821456744151176e-05
1.4460620703125815e-05
1.1160984784106114e-05
8.660321944337522e-06
6.749546091930671e-06
5.269519222721577e-06
4.104909533774489e-06
3.175941627611264e-06
2.429304901497734e-06
1.8295567579760595e-06
1.3520492862227917e-06
9.778860760234697e-07
6.908919506956293e-07
4.7620714502522667e-07
3.199553616955321e-07
2.0945476351543912e-07
1.3357087351904711e-07
8.297496869727199e-08
5.0216072611697986e-08
2.9612720454370484e-08
1.70196820917944e-08
9.536035926454586e-09
5.2099966315225195e-09
2.7763809811903213e-09
1.4435806824515502e-09
7.327393500614223e-10
3.634200526890638e-10
1.7644094090990156e-10
8.41481998976653e-11
3.96871412482649e-11
1.8734737561306686e-11
9.02713349412769e-12
4.559171883095381e-12
2.4762418121442305e-12
1.4615830879707355e-12
9.257056745427123e-13
6.117865696464014e-13
4.0980817884001303e-13
2.7207006415402246e-13
1.7630567476723455e-13
1.1035700777359925e-13
6.620266932498287e-14
3.7819967526135895e-14
2.048801058472443e-14
1.055385029486156e-14
5.300355721686436e-15
2.808826609850792e-15
1.804084015547401e-15
1.497239648625854e-15
1.442884064217267e-15
1.421064833844779e-15
1.3474931774689058e-15
1.2103985288461882e-15
1.0296920457938025e-15
8.331404391772414e-16
6.444482466796779e-16
4.789437115532158e-16
3.4357025783811967e-16
2.388682664158059e-16
1.6147289912888576e-16
1.0630999675076584e-16
6.814285510612705e-17
4.242876294677099e-17
2.5615669187177695e-17
1.5078751538327933e-17
8.895084196435622e-18
5.609760993705535e-18
4.0822540064356216e-18
3.4366198178121577e-18
3.0879319668544966e-18
2.7893059727131923e-18
2.6422722921543828e-18
3.034633611055386e-18
4.505009878394972e-18
7.569108796844044e-18
1.2566420754297525e-17
1.9588508657107113e-17
2.852933785421603e-17
3.926043684328243e-17
5.1892679677145124e-17
6.705998201818725e-17
8.616557901544701e-17
1.1157989672578624e-16
1.4686934724685247e-16
1.972509828505104e-16
2.7057872282298035e-16
3.792420944706133e-16
5.433937795889194e-16
7.959804121638492e-16
1.1903077627634005e-15
1.8116494281708933e-15
2.7961742446507147e-15
4.363767655628715e-15
6.876641124424553e-15
1.0943188223587437e-14
1.759613456912207e-14
2.858490436819963e-14
4.6833239799126136e-14
7.712367195762757e-14
1.2708077896833736e-13
2.0853737121258364e-13
3.393850426046771e-13
5.460335267587338e-13
8.666205643681258e-13
1.3550839994137913e-12
2.0860295613961015e-12
3.159799326441056e-12
4.705918004749141e-12
6.880652025943901e-12
9.850195151379301e-12
1.3744925224919104e-11
1.8564382097839716e-11
2.4015823606707867e-11
2.930695249790296e-11
3.304933093842572e-11
3.380556014540705e-11
3.2722245939266547e-11
4.1683168400722993e-11
1.0445380451014172e-10
3.4590838664906803e-10
1.0778687204899684e-09
3.012197484381911e-09
7.66556535172679e-09
1.8087652813322337e-08
4.010402966939927e-08
8.43284432013224e-08
1.6924772040020305e-07
3.2568227017666176e-07
6.028268637149949e-07
1.0758199514675099e-06
1.854319599309391e-06
3.090856284194139e-06
4.986833160815739e-06
7.793108690264057e-06
1.180141469216979e-05
1.7322843702633302e-05
2.465073128964157e-05
3.400779700541936e-05
4.548140890963876e-05
5.895580227962049e-05
7.405490455433624e-05
9.011248753123459e-05
0.00010618594905768034
0.00012112485388934873
0.00013369529997640754
0.00014274768123500713
0.00014740155588481647
0.00014721117282996799
0.00014227269306761663
0.00013324168499497836
0.0001212468139542045
0.00010770940010122764
9.410270600559463e-05
8.170238686041032e-05
7.138452177909207e-05
6.351730088756963e-05
5.796863848518298e-05
5.4221169201728774e-05
5.1557582151512476e-05
4.926219370067058e-05
4.6784620470036676e-05
4.382805789241216e-05
4.0351648156330826e-05
3.650376912042847e-05
3.25212223315781e-05
2.8632915365155327e-05
2.4996519434703575e-05
2.167874036375985e-05
1.8672336806106307e-05
1.59323044211323e-05
1.3412136778889258e-05
1.108696647881825e-05
8.95938039522315e-06
7.051434087821961e-06
5.390295977635626e-06
3.994797076784201e-06
2.8673982761375746e-06
1.9926816953424454e-06
1.3409197736247111e-06
8.74171855362053e-07
5.525179574709916e-07
3.3889057063246377e-07
2.0193283283922189e-07
1.1703452172577486e-07
6.606303568692018e-08
3.637223864582203e-08
1.956224137128348e-08
1.029389812063639e-08
5.307143090331537e-09
2.683370530220079e-09
1.330825532817378e-09
6.468299648236481e-10
3.074458315111866e-10
1.4246858713099115e-10
6.415508776365334e-11
2.802131800197391e-11
1.1895530142023596e-11
4.95630753593342e-12
2.070568687428507e-12
8.954290257710935e-13
4.1241700735020667e-13
2.028575914107332e-13
1.0357448356165773e-13
5.269084727599027e-14
2.5783586953517115e-14
1.1832961261458972e-14
4.994125657034195e-15
1.8990577290514766e-15
6.315447285592689e-16
1.7384277973017986e-16
3.4959211101232185e-17
3.743298029377393e-18
1.1252204514326028e-18
2.5802597724951114e-18
2.939010810108165e-18
2.4646902186757793e-18
1.912339236766079e-18
1.3471091089909726e-18
6.419381781848553e-19
7.48562676239873e-20
3.8925123230345272e-19
6.815166451790206e-19
9.302092883499161e-19
1.297309810506956e-18
2.6863038275581297e-18
6.858846841546329e-18
1.7294402277487144e-17
4.1741063117501675e-17
9.841562840018115e-17
2.303837291782553e-16
5.376329027996667e-16
1.2473176093646833e-15
2.8673326504968154e-15
6.519530444491375e-15
1.4649042792117198e-14
3.2498283311445794e-14
7.109768078239218e-14
1.5319892237834594e-13
3.2479966043094e-13
6.771013891391211e-13
1.3876658845519749e-12
2.7965918020295633e-12
5.5462366412576615e-12
1.0835474926986845e-11
2.0877146766702598e-11
3.970380558712165e-11
7.453368218328815e-11
1.3794281415139812e-10
2.509758376798124e-10
4.4684430072677077e-10
7.736920490822634e-10
1.2928121537094733e-09
2.0659592043924593e-09
3.123567779685099e-09
4.408376684634487e-09
5.701906817464719e-09
6.5705329609785534e-09
6.415662593155765e-09
4.7712976999883996e-09
2.0418419537479982e-09
8.860756805129376e-10
8.412833900090997e-09
3.927832132362268e-08
1.197323976465233e-07
2.9275120756665155e-07
6.246816485790894e-07
1.2142435179589926e-06
2.2050144788444104e-06
3.802196828503486e-06
6.293036656769063e-06
1.006749270812401e-05
1.563196292694462e-05
2.3605164189590548e-05
3.468339416284075e-05
4.9564372978087104e-05
6.88260918861007e-05
9.276953336593324e-05
0.00012124954746255438
0.0001535321301546593
0.00018822313019872976
0.00022330794096395314
0.00025632200144523436
0.0002846408616013665
0.00030584424112976914
0.00031808207126030893
0.000320362165876837
0.0003126938202941621
0.0002960561803633144
0.00027220409507141055
0.00024336318197091235
0.00021188776162804054
0.00017995459463207263
0.00014934483195973872
0.00012133561672267644
9.669280089858355e-05
7.573615444104496e-05
5.84417543086757e-05
4.455099718534786e-05
3.366661741888589e-05
2.5327558036983193e-05
1.9062744117079015e-05
1.4427606197092527e-05
1.1027560274623303e-05
8.531412730109973e-06
6.676415817130514e-06
5.266218714605472e-06
4.1632019402130526e-06
3.277180691723474e-06
2.5527359803515943e-06
1.957245325918733e-06
1.4710847432059118e-06
1.0806842485952093e-06
7.743913207354031e-07
5.4060114526527e-07
3.6740105035671656e-07
2.4300363336992966e-07
1.5641379949777532e-07
9.799208237458482e-08
5.976988248265407e-08
3.5507022429784486e-08
2.0553583816482338e-08
1.1599528313120848e-08
6.386423053031128e-09
3.433161493782284e-09
1.8039091165230334e-09
9.278173403622983e-10
4.681371143046672e-10
2.3246263272164802e-10
1.1416967446691258e-10
5.587482253846243e-11
2.7546407129907847e-11
1.3878777357385128e-11
7.2629388210117045e-12
4.001212851711224e-12
2.3318612833381555e-12
1.4282449382255408e-12
9.055375018795133e-13
5.83733283675881e-13
3.764362142186334e-13
2.3979344578457047e-13
1.495110381313506e-13
9.068662748187808e-14
5.33536881191521e-14
3.049999813769883e-14
1.7121077895703866e-14
9.691288058321349e-15
5.803235538741517e-15
3.884822311077246e-15
2.966612623142173e-15
2.4934581259043462e-15
2.1784837077840865e-15
1.8960732959227813e-15
1.6082866266882388e-15
1.3178672956791855e-15
1.0408994760197935e-15
7.929211680942189e-16
5.8348955297578215e-16
4.154827505118314e-16
2.866004826628084e-16
1.9149095455702293e-16
1.2365481238700903e-16
7.677508589358017e-17
4.5431339014446216e-17
2.5320322990912873e-17
1.3166254690999973e-17
6.4977635233356545e-18
3.4247618427240758e-18
2.4893768016190835e-18
2.607351155500222e-18
3.0720412235878216e-18
3.569949239847338e-18
4.1572719578536756e-18
5.168225483767979e-18
7.059489393268987e-18
1.0228930725621675e-17
1.4868389231254702e-17
2.0910865303265642e-17
2.8109953971945626e-17
3.625018396704789e-17
4.544484065084964e-17
5.645065623359608e-17
7.093282184308144e-17
9.165774900397916e-17
1.2267010225846175e-16
1.6960419600484273e-16
2.403556192535535e-16
3.463675302808231e-16
5.047677859547218e-16
7.415952067872554e-16
1.0965494645135623e-15
1.6303959675352352e-15
2.4377882791100356e-15
3.671338202886387e-15
5.5877183787432155e-15
8.633654294449971e-15
1.359869256327546e-14
2.1871990833609325e-14
3.5851086902119824e-14
5.956076549978686e-14
9.954957580793687e-14
1.6614139460000137e-13
2.7513187066433967e-13
4.5003557092157553e-13
7.25002923914872e-13
1.14851192391449e-12
1.7878372020616863e-12
2.7339881403028295e-12
4.106085898876197e-12
6.0527373511001635e-12
8.745622994643176e-12
1.2357511207032742e-11
1.701539947819379e-11
2.27270847410158e-11
2.9317493793891804e-11
3.653178797518275e-11
4.478160884869015e-11
5.7765857750262965e-11
8.98359694433912e-11
1.8428112267725118e-10
4.549441284784527e-10
1.1745996624487735e-09
2.9517591972709784e-09
7.065672405223983e-09
1.6069275940879418e-08
3.482132995692245e-08
7.21665531595043e-08
1.435322292402034e-07
2.7472542391624337e-07
5.071565504906925e-07
9.045309376589727e-07
1.5606871999524898e-06
2.6076855009487683e-06
4.22247617547075e-06
6.629612109238521e-06
1.0096725154181516e-05
1.4919204368145188e-05
2.139109954828351e-05
2.9761092932535757e-05
4.017558603186406e-05
5.2615280790167996e-05
6.683629315372603e-05
8.233048970425796e-05
9.832076178171896e-05
0.00011380391459677434
0.0001276461305502491
0.00013872431137475653
0.00014609335005463038
0.0001491481452504193
0.000147743933087907
0.00014224231629458988
0.00013346400606075457
0.00012255048542320936
0.00011076035582696912
9.92451470399573e-05
8.88573674164499e-05
8.003682261058615e-05
7.280053270853616e-05
6.683259291266815e-05
6.164209967591665e-05
5.673920658241544e-05
5.177768613294436e-05
4.662744227978765e-05
4.136641538978725e-05
3.620841820874452e-05
3.140181522713208e-05
2.7137805610675298e-05
2.3496764159734266e-05
2.0442505252240496e-05
1.785577377640113e-05
1.5586684335290583e-05
1.350412691158094e-05
1.1526728320695873e-05
9.630307811890227e-06
7.836044647316073e-06
6.188674023927181e-06
4.734357042904242e-06
3.504844434836744e-06
2.5103781995221542e-06
1.7403062221821807e-06
1.1685341738832289e-06
7.606869288118049e-07
4.806283337254488e-07
2.951136229792087e-07
1.763260995420966e-07
1.026564591434039e-07
5.831856409745155e-08
3.237297043718829e-08
1.7582506935795433e-08
9.3536076203193e-09
4.877473760558664e-09
2.493514731847997e-09
1.2492069879469546e-09
6.126482549404444e-10
2.937490884729982e-10
1.3757821998196135e-10
6.298308192239498e-11
2.829011361313826e-11
1.2573593460903396e-11
5.60603955156997e-12
2.5487231595742237e-12
1.195686334323879e-12
5.784194109931945e-13
2.84203583955819e-13
1.3853871022746152e-13
6.539122410627917e-14
2.9247228776058755e-14
1.2150562286922517e-14
4.585249914630198e-15
1.5221343669093496e-15
4.1943511806038343e-16
8.420870470733815e-17
8.717320897845762e-18
2.576938042494484e-18
6.464008028700048e-18
7.716164103706346e-18
6.554795334117765e-18
4.662104568603402e-18
2.7920607061580948e-18
1.2767592903672978e-18
4.557373494680736e-19
1.0971639142266265e-18
7.391719027422994e-19
3.7628638768924e-19
1.9375013936161587e-19
6.015103651400028e-19
2.1130739738443902e-18
5.749024121263409e-18
1.4038522230775834e-17
3.3458309697221615e-17
8.041729088229933e-17
1.9467238070542359e-16
4.690821158814216e-16
1.1176353346846252e-15
2.631183167517957e-15
6.125194570930037e-15
1.4095293465354732e-14
3.202232230248471e-14
7.171571627953004e-14
1.5814448616146784e-13
3.4312706627434117e-13
7.322612041370805e-13
1.5369849918392417e-12
3.1735718787036172e-12
6.448159365268597e-12
1.2895443501379048e-11
2.5381078411322735e-11
4.912881788107639e-11
9.336451220094776e-11
1.7370245839930577e-10
3.150799945698606e-10
5.542448500267168e-10
9.393253324488533e-10
1.5220307913275053e-09
2.3366300341010324e-09
3.3616932287528047e-09
4.469990689255641e-09
5.393583336070712e-09
5.766539178999861e-09
5.350491586135198e-09
4.581501761158141e-09
5.577815339441224e-09
1.3704937370373619e-08
3.9728598849420206e-08
1.0256833510112415e-07
2.3279892824659183e-07
4.774108972308846e-07
9.068888814985779e-07
1.6261469354481316e-06
2.790812676713736e-06
4.629238366589376e-06
7.468074213226101e-06
1.1755393151892488e-05
1.807105493465636e-05
2.7110829387636335e-05
3.9630795283030794e-05
5.634352721363987e-05
7.77683350922405e-05
0.00010405313752764405
0.00013480183724361722
0.00016895274527045355
0.000204754653740829
0.0002398735699445696
0.00027163535332074755
0.0002973736916671594
0.0003148197618688503
0.0003224513595515484
0.00031972335485156887
0.00030712855096541754
0.00028608038349308155
0.0002586526713345246
0.00022724277343338277
0.00019423421398662426
0.00016172262743566822
0.0001313419136503884
0.00010419681316719898
8.088376311135304e-05
6.156938117290806e-05
4.6095252730382044e-05
3.408488855024208e-05
2.5038542652747932e-05
1.8409949463642236e-05
1.3664162361063315e-05
1.031781955804517e-05
7.963637045295516e-06
6.281018692447871e-06
5.035039658077874e-06
4.066688101211258e-06
3.2777695508978596e-06
2.613930585709792e-06
2.0487271841557845e-06
1.5706958259397607e-06
1.1742771103995225e-06
8.544830340599039e-07
6.045708601001692e-07
4.1572887822688623e-07
2.7782232791104747e-07
1.8046895216050815e-07
1.1399207425828641e-07
7.004799945567624e-08
4.1900864871127285e-08
2.4415186336447125e-08
1.3869717296148992e-08
7.689261600173285e-09
4.165455213233743e-09
2.2085943356724975e-09
1.1486745328637721e-09
5.877555400012743e-10
2.97084738756228e-10
1.4915846740587067e-10
7.493533875447384e-11
3.802099049817467e-11
1.969297877180572e-11
1.0523675889541184e-11
5.8486665132293414e-12
3.3895138093147843e-12
2.0406050556411404e-12
1.2646888085599215e-12
7.975638201185023e-13
5.059396546289556e-13
3.196979713372723e-13
1.997713636716226e-13
1.2290764343921075e-13
7.438626247605369e-14
4.445851463007568e-14
2.6521990793778997e-14
1.610245574421931e-14
1.0219751441837374e-14
6.950189711386316e-15
5.1049466028203435e-15
3.9895270998698045e-15
3.2267083971860292e-15
2.630910260063046e-15
2.123439712315611e-15
1.678795633984657e-15
1.2932659246157292e-15
9.685050768018616e-16
7.044213920537716e-16
4.972858782206043e-16
3.403358959783943e-16
2.252149256782132e-16
1.4336269738366408e-16
8.69839206974231e-17
4.9532126230144414e-17
2.5802896242637775e-17
1.1787174672086231e-17
4.429893057215451e-18
1.4011105199286761e-18
9.367869571074279e-19
1.7583249662651255e-18
3.0438665611495228e-18
4.406221076712631e-18
5.834551417150657e-18
7.577158860804392e-18
9.973576159018184e-18
1.3274818150718658e-17
1.750952883155202e-17
2.245255225810382e-17
2.7729304996036888e-17
3.305050521582309e-17
3.8530695930104e-17
4.501742086439211e-17
5.436048736038652e-17
6.958852892292851e-17
9.502551307299936e-17
1.3645071332044408e-16
2.0145091796015616e-16
3.001085237530543e-16
4.461202108541869e-16
6.584179536676156e-16
9.635317853907928e-16
1.3995702967021413e-15
2.0241837817457088e-15
2.931654721875811e-15
4.2887252220539846e-15
6.405131147255645e-15
9.862946563299284e-15
1.573820819143285e-14
2.595798916825377e-14
4.384516769887349e-14
7.491111923967638e-14
1.279640916574287e-13
2.1661012721051707e-13
3.612367013959314e-13
5.915872910863046e-13
9.500509595282473e-13
1.4957822399100983e-12
2.3096852908031795e-12
3.500064091351232e-12
5.208268858752219e-12
7.612972828623846e-12
1.0931304857432085e-11
1.5417083766033932e-11
2.1367500226978994e-11
2.9187523626670704e-11
3.9668682168032376e-11
5.490936410220804e-11
8.092786617080306e-11
1.3435639057334115e-10
2.5828345585093563e-10
5.5735361432706e-10
1.2711516698628666e-09
2.9197148724104126e-09
6.578044469738943e-09
1.436970383424093e-08
3.031336660574352e-08
6.170720975162999e-08
1.2128450201650003e-07
2.3040010067366313e-07
4.2348031497050325e-07
7.538447225805562e-07
1.300739681133598e-06
2.1769702455049553e-06
3.535874103206841e-06
5.575607007078616e-06
8.537958637212587e-06
1.2698455544483526e-05
1.834468657346275e-05
2.5740969942922137e-05
3.5079908593286e-05
4.642498963260723e-05
5.965265427985213e-05
7.440615956709008e-05
9.007564547839894e-05
0.00010581765019820584
0.00012062192809721243
0.0001334239508032457
0.00014324950405197363
0.00014936632373066096
0.00015141049423439713
0.00014945572386941683
0.00014400325015407123
0.00013588787381828052
0.0001261173170047333
0.00011568143308295324
0.00010537817679825939
9.570020750240822e-05
8.68092195360863e-05
7.859912622613612e-05
7.082239033378837e-05
6.323537054922614e-05
5.571520189395515e-05
4.831364978858168e-05
4.123756684626593e-05
3.477171075235024e-05
2.917793849356082e-05
2.4608963553144624e-05
2.1064761124401376e-05
1.8400823570894187e-05
1.6378133864774352e-05
1.4732279098654214e-05
1.3236997255537457e-05
1.1744384298124798e-05
1.0195463454404915e-05
8.605598677368195e-06
7.03566256769236e-06
5.560919755155763e-06
4.2465237291100295e-06
3.133708372155631e-06
2.2363764140101776e-06
1.545101232089358e-06
1.0347671028356913e-06
6.726614318528559e-07
4.250464905037234e-07
2.614494156215831e-07
1.5677297927638124e-07
9.17679787382634e-08
5.250708219044307e-08
2.940108753082807e-08
1.6126820185427306e-08
8.670973211785031e-09
4.5715109376176885e-09
2.3632468559693525e-09
1.1975648520217992e-09
5.947592482847184e-10
2.8959874943049584e-10
1.384781385091364e-10
6.526772723293853e-11
3.0510727322182253e-11
1.4264764194613828e-11
6.726584350559813e-12
3.2152001120009233e-12
1.5549754814754832e-12
7.538210346739906e-13
3.609594662056375e-13
1.6789518667868664e-13
7.461055038819672e-14
3.116464684406806e-14
1.2024328513531133e-14
4.197238323114654e-15
1.2925196630030418e-15
3.4606846173071217e-16
9.040236393762917e-17
3.885124684306513e-17
3.101202080928351e-17
2.620038912639602e-17
1.948626611171064e-17
1.2698873994596913e-17
7.250526996230651e-18
3.650931489770368e-18
1.8081746642305855e-18
2.5219537022072214e-18
1.063007331428059e-18
2.6105559990535604e-19
8.225164937756424e-21
2.0795715414528778e-19
8.024632701139767e-19
2.0168062330567696e-18
4.601426946974623e-18
1.0750154638358986e-17
2.668922348022265e-17
6.800458771577788e-17
1.712768713288845e-16
4.2285688027353663e-16
1.0295968530901381e-15
2.4841387074047107e-15
5.938327567305568e-15
1.4031484932925739e-14
3.2699119416373524e-14
7.505287128505856e-14
1.6954172900874854e-13
3.7677322657928243e-13
8.234795446313855e-13
1.7696772655007681e-12
3.738483242188661e-12
7.760496640902519e-12
1.5818819399210282e-11
3.162443985568409e-11
6.188730178049562e-11
1.1822450704638716e-10
2.1965644970585897e-10
3.9511876466059074e-10
6.844110227836273e-10
1.134600398775276e-09
1.78785638611831e-09
2.6579419437435154e-09
3.699361372701079e-09
4.788974069802075e-09
5.765703429202562e-09
6.604269774148136e-09
7.8193521324503e-09
1.1188451142643666e-08
2.083620398946043e-08
4.4662888473342e-08
9.609512624992421e-08
1.9629169767981478e-07
3.773357527365737e-07
6.875604165608734e-07
1.2007686131054789e-06
2.0312914643948604e-06
3.356044740449011e-06
5.442558825075724e-06
8.678329555788214e-06
1.3592347378156813e-05
2.085561702404165e-05
3.124576905750166e-05
4.5563517409447824e-05
6.449715145582914e-05
8.84453396952845e-05
0.00011732579948380882
0.0001504129095150793
0.0001862546795696558
0.00022271295464039816
0.0002571482070167999
0.00028673540220524956
0.0003088596880075283
0.000321512649579465
0.00032360251662087996
0.00031510938287595354
0.00029705456863775894
0.00027129946796754993
0.00024022853120212872
0.00020639165093138968
0.00017217898874114654
0.00013958045311656243
0.0001100524365460673
8.448672357157756e-05
6.325807444996584e-05
4.6320082735065784e-05
3.332125347570293e-05
2.3720460457207932e-05
1.6888906497325146e-05
1.2192035267470592e-05
9.048990457898044e-06
6.9697838392772255e-06
5.572130427676399e-06
4.581383145095605e-06
3.818132562130167e-06
3.178577340822541e-06
2.612531446684727e-06
2.102966696136717e-06
1.6495748487181123e-06
1.2573533761694626e-06
9.300038511625471e-07
6.67165396495603e-07
4.6420738135864055e-07
3.133742838336042e-07
2.0535726305313518e-07
1.3071486508503663e-07
8.087581890414232e-08
4.867875447506647e-08
2.8528768292121685e-08
1.629716306533314e-08
9.086271958924161e-09
4.952244477529102e-09
2.643952259539326e-09
1.3864342115960457e-09
7.165567829971561e-10
3.6666159565628026e-10
1.8682252191827094e-10
9.545203804633566e-11
4.930010945917701e-11
2.5961106193385782e-11
1.4047300849499853e-11
7.85304635640916e-12
4.5439965322383704e-12
2.7148051607722825e-12
1.664689728074911e-12
1.03923104357176e-12
6.549257936578363e-13
4.1352812647291144e-13
2.6013176058110545e-13
1.62512662484518e-13
1.0082549151155073e-13
6.23587935275357e-14
3.876979587411327e-14
2.4541988258692672e-14
1.605721815886307e-14
1.0991904708352843e-14
7.900188278971231e-15
5.9180015097855806e-15
4.553359302799024e-15
3.541248478596385e-15
2.7470875133970783e-15
2.105739388441422e-15
1.58542311226684e-15
1.1681146699877505e-15
8.4015128353797255e-16
5.886237050424954e-16
4.0066440822760194e-16
2.638894438880336e-16
1.6705806207610047e-16
1.0053642373124252e-16
5.645822018362979e-17
2.863011629332964e-17
1.228727146089994e-17
3.8044537442023545e-18
4.39802948405896e-19
1.4962512291230732e-19
1.4755474663674712e-18
3.477758256459461e-18
5.675000452249823e-18
7.955635509100669e-18
1.0442710449230076e-17
1.3323440959488388e-17
1.6680353420253592e-17
2.037720042686627e-17
2.4050134924371173e-17
2.7231936577125648e-17
2.9600272187012043e-17
3.130243917712308e-17
3.3283950357948735e-17
3.754903306544253e-17
4.73113227033467e-17
6.704369721747707e-17
1.0248582655388216e-16
1.6068944345623984e-16
2.5015641588580176e-16
3.810661195814221e-16
5.655657174024485e-16
8.182591128437307e-16
1.157619022204717e-15
1.6103858206525746e-15
2.223472080696752e-15
3.0917913279779786e-15
4.415951181910666e-15
6.610794276317588e-15
1.0493861456818756e-14
1.7591156282856116e-14
3.0605122052203416e-14
5.409583454784798e-14
9.543141970891803e-14
1.660697739953767e-13
2.8324527272818826e-13
4.721580524562898e-13
7.688078664854761e-13
1.223687829657418e-12
1.9066638115921483e-12
2.913526534967073e-12
4.374963818641656e-12
6.469249029389147e-12
9.441442232626646e-12
1.3636416902826378e-11
1.9566335768489053e-11
2.8070044271726572e-11
4.071680120913247e-11
6.08348656229946e-11
9.60581033033679e-11
1.643655082150163e-10
3.077375612627987e-10
6.215799180244691e-10
1.3151837476050437e-09
2.8303549728983067e-09
6.063917448804225e-09
1.2766934576118427e-08
2.62300464051657e-08
5.24085748664059e-08
1.0168649988694063e-07
1.915110400969526e-07
3.501254237421101e-07
6.21551857882908e-07
1.0717874749607595e-06
1.7958328960383451e-06
2.92465561102469e-06
4.630524060731165e-06
7.12843352682072e-06
1.0670778574455667e-05
1.553229919078464e-05
2.198297666268662e-05
3.024826499135732e-05
4.045889681188809e-05
5.259622042488558e-05
6.644286188464164e-05
8.155128566959451e-05
9.724317351333192e-05
0.00011264931678177175
0.00012679257131545342
0.00013870624941737122
0.00014756940144448576
0.00015283206002920813
0.00015430106832956122
0.00015216281499907106
0.0001469329519274625
0.00013934199297734428
0.00013018417870492546
0.00012016887145528794
0.00010981413155672289
9.940966794445919e-05
8.905432732725709e-05
7.87489146400629e-05
6.850716875643144e-05
5.8442998139187155e-05
4.8802591605651e-05
3.993176821060928e-05
3.219340689812303e-05
2.5867489945169198e-05
2.107072265506681e-05
1.772305745950044e-05
1.556967408899864e-05
1.4247169797457022e-05
1.3369479690201852e-05
1.260632350455434e-05
1.1733973789800716e-05
1.065047665389125e-05
9.359630264616054e-06
7.93586709452508e-06
6.484170544400515e-06
5.106292960451947e-06
3.879249297229107e-06
2.8468205820679565e-06
2.021224505851914e-06
1.390666493100218e-06
9.28767848295623e-07
6.03086875033948e-07
3.8135732367202133e-07
2.3519204806096323e-07
1.4166663926769455e-07
8.345026439449167e-08
4.812747608341856e-08
2.7199839557647817e-08
1.5074712292203184e-08
8.196707376063769e-09
4.373745912763924e-09
2.2907728371780417e-09
1.1781269236996626e-09
5.954887405029084e-10
2.963521316197533e-10
1.4564898934758392e-10
7.099455336568681e-11
3.449170369208519e-11
1.677507461982211e-11
8.182995510790573e-12
3.99563274012895e-12
1.9406323396780846e-12
9.285353076495342e-13
4.327360315846772e-13
1.941581118398651e-13
8.293788985880078e-14
3.339273980655569e-14
1.2581237698149624e-14
4.44535685121664e-15
1.5206224401702074e-15
5.573727728741225e-16
2.5597689841595146e-16
1.509367788745923e-16
9.864575499019226e-17
6.322309629919388e-17
3.7807321779402144e-17
2.078952272611421e-17
1.060804770677887e-17
5.216188250797552e-18
6.135333032434292e-18
2.2649252687440005e-18
6.727627755497627e-19
2.370177455142529e-19
2.3916699260951783e-19
3.9404598012509565e-19
7.34451012384653e-19
1.3946630206934687e-18
3.068723188861218e-18
8.292294252419108e-18
2.31920435497532e-17
6.131542867532515e-17
1.5546535828011864e-16
3.8952682785822363e-16
9.747973579946563e-16
2.4274380493750993e-15
5.979158840541116e-15
1.4518197917100315e-14
3.470815244235841e-14
8.16621952582194e-14
1.8903271744750366e-13
4.303038824793795e-13
9.626732807764953e-13
2.1151864557054447e-12
4.560611805052459e-12
9.638958764406187e-12
1.9940007883537855e-11
4.0293560931482877e-11
7.932715556101999e-11
1.5165906822959908e-10
2.804801084524338e-10
4.996191100737851e-10
8.532181600508986e-10
1.3903726348932797e-09
2.1528985724836763e-09
3.159155931743891e-09
4.398174154512441e-09
5.86674304247701e-09
7.702848724104185e-09
1.0479796256793835e-08
1.571100337640576e-08
2.6569554355558126e-08
4.8771924940293416e-08
9.157798981541734e-08
1.690192139306028e-07
3.0186856251880854e-07
5.214982583779831e-07
8.774509610745986e-07
1.4508969685881326e-06
2.3756648585902725e-06
3.8667680732197785e-06
6.253138016550378e-06
1.0006944759276178e-05
1.575740504583359e-05
2.4273943759314204e-05
3.640399793921841e-05
5.2956507269342924e-05
7.453408346243774e-05
0.00010133381577983205
0.00013295475597788678
0.0001682630499762376
0.00020536654751865228
0.00024173496661873608
0.0002744700745926353
0.00030069027725807815
0.00031795795218526873
0.00032465893469357825
0.0003202499910999842
0.00030532124410382586
0.00028146656537043435
0.0002510008201863283
0.0002165942632292236
0.0001809033915189033
0.00014626487102579317
0.00011449256820389119
8.67879015816033e-05
6.374967938838353e-05
4.545586606374483e-05
3.158620807354735e-05
2.155824657320428e-05
1.4656132632460384e-05
1.0138955972643728e-05
7.3215903339056196e-06
5.626059644186473e-06
4.605300726036632e-06
3.944053619404886e-06
3.4433808162008953e-06
2.9958867871026985e-06
2.5581124091672896e-06
2.125086028557496e-06
1.7100742831848994e-06
1.3306745437320286e-06
1.0008973795862494e-06
7.27980494888926e-07
5.123444106544992e-07
3.4920494590240886e-07
2.3070857084113853e-07
1.4788047011016723e-07
9.205143485785072e-08
5.569962974349612e-08
3.279779666961791e-08
1.8816666995369908e-08
1.0533786632819425e-08
5.764461918017624e-09
3.0907506112610475e-09
1.628466285554021e-09
8.463277729440907e-10
4.359190974492284e-10
2.2382611911951675e-10
1.1535180455157271e-10
6.012006140958578e-11
3.192864970101999e-11
1.739293156305077e-11
9.762294933309307e-12
5.6542632395087124e-12
3.373498832246676e-12
2.063873771844812e-12
1.286592564189214e-12
8.117070967574928e-13
5.15091710400578e-13
3.2725019997122564e-13
2.07631042879565e-13
1.315673066122166e-13
8.350786208544998e-14
5.340380619962813e-14
3.469009829854936e-14
2.308793993440589e-14
1.5846230276835103e-14
1.1234713880528616e-14
8.195020545843143e-15
6.0993021224602165e-15