# vtk DataFile Version 4.1 
COMMENT
ASCII
DATASET STRUCTURED_POINTS 
DIMENSIONS 300 300 1 
ORIGIN 0 0 0
SPACING 0.020943951023931952 0.020943951023931952 0 
POINT_DATA 90000
SCALARS U double 1
LOOKUP_TABLE default
4.658787625293546e-19
6.618022571109172e-19
9.17307657610789e-19
1.96391852216598e-18
5.56886454801698e-18
1.5059043913659765e-17
3.727254317320066e-17
8.796024269236189e-17
2.0360146911156994e-16
4.656964368208872e-16
1.052882599757006e-15
2.3570715966907813e-15
5.241726894248025e-15
1.1603952724192017e-14
2.556363613013279e-14
5.588759033675954e-14
1.2068944020972334e-13
2.5596531046533177e-13
5.298504072630435e-13
1.063885300105723e-12
2.0595957978934325e-12
3.820938984836916e-12
6.747895032167147e-12
1.125319931478693e-11
1.7532279385170116e-11
2.513218705878131e-11
3.241334473701172e-11
3.6477478631466485e-11
3.529817776737595e-11
3.615505346196472e-11
7.863560305479263e-11
2.868454069228609e-10
9.73824628748691e-10
2.8300606472593693e-09
7.2343769542443504e-09
1.672495456200519e-08
3.56560025993715e-08
7.103770152433329e-08
1.335105182494771e-07
2.383352007161434e-07
4.061755360173104e-07
6.632927372052187e-07
1.0405418022792183e-06
1.5702838863316606e-06
2.2801230025999507e-06
3.1825029762572683e-06
4.26004877520262e-06
5.448462989739118e-06
6.621817769058593e-06
7.588546981837636e-06
8.108792820860572e-06
7.94282072468066e-06
6.934044247857252e-06
5.11837734953467e-06
2.8364108380525527e-06
8.114486394645934e-07
1.5150338771686958e-07
2.242596916797788e-06
8.525532621634825e-06
2.018381041385847e-05
3.780586165314407e-05
6.110718334111526e-05
8.879681301598533e-05
0.00011864480490447057
0.00014775918640472588
0.00017302616955123726
0.0001916228659047785
0.00020149102730405928
0.00020166935240573976
0.00019241730025684257
0.0001751141444725806
0.00015196856292447574
0.0001256128354068489
9.867303318515499e-05
7.340049745019194e-05
5.1424926239740086e-05
3.365437284652518e-05
2.031256182418818e-05
1.107763921803231e-05
5.273550056765227e-06
2.0660530684648326e-06
6.266672378593696e-07
2.4434613669090556e-07
3.8107247306342263e-07
6.799612145599846e-07
9.41088206043691e-07
1.0813687876743207e-06
1.0919788379662408e-06
1.0020917594768753e-06
8.529030853025673e-07
6.821843127882117e-07
5.173868537901904e-07
3.744895627653241e-07
2.599358576365941e-07
1.7366337276658132e-07
1.1200469418191461e-07
6.989634326489132e-08
4.228042129322943e-08
2.482275457522608e-08
1.415530646423207e-08
7.842083588883136e-09
4.218869723524276e-09
2.2015782695567144e-09
1.1125276627543938e-09
5.433766721018584e-10
2.562730977450954e-10
1.1709648221000584e-10
5.264328478545331e-11
2.4314279866531923e-11
1.2530468876893498e-11
7.810193794742024e-12
5.826355203510882e-12
4.7617349121755806e-12
3.94813465828333e-12
3.1983535407526705e-12
2.497827853559478e-12
1.874493220140836e-12
1.3518430745147915e-12
9.376595710516882e-13
6.259732984706624e-13
4.0244267827350207e-13
2.4936479279826767e-13
1.492077804131466e-13
8.663589960047033e-14
4.936083082269935e-14
2.821346231335608e-14
1.6776274624647067e-14
1.082835229718946e-14
7.767505837712463e-15
6.101252976360116e-15
5.0451212279329864e-15
4.232371892078177e-15
3.5205444385504636e-15
2.872848824719466e-15
2.2921707404140867e-15
1.788870608336533e-15
1.3682525506141673e-15
1.0281225219672366e-15
7.605614441319439e-16
5.5472001326904015e-16
3.991835297051927e-16
2.834628612311855e-16
1.9866751563840372e-16
1.3760419752393245e-16
9.456414726099399e-17
6.500890085274112e-17
4.5289333225858537e-17
3.246163488471342e-17
2.4206114797312892e-17
1.8814755409570994e-17
1.5194202030773237e-17
1.2833652747401479e-17
1.1709263537834935e-17
1.2129893228497009e-17
1.45603037085012e-17
1.947352576503712e-17
2.727481855651099e-17
3.830553918426345e-17
5.28874940032362e-17
7.132768346543262e-17
9.379523145878113e-17
1.2003001502203675e-16
1.4895946641843522e-16
1.784824419712128e-16
2.0590186038658298e-16
2.297080469002174e-16
2.5358883383726173e-16
2.936627059494651e-16
3.900797936342021e-16
6.245416427906661e-16
1.1463588837764536e-15
2.2119265157694753e-15
4.246430957140296e-15
7.94232604365944e-15
1.4415974003562015e-14
2.5450126066615445e-14
4.3852989892812946e-14
7.396202460454786e-14
1.2231239882294126e-13
1.9848275675623527e-13
3.161425486812133e-13
4.943908948374851e-13
7.596567923083383e-13
1.1488260921351906e-12
1.715063486852138e-12
2.5394190900240435e-12
3.754688474417938e-12
5.595241448569883e-12
8.502116651067419e-12
1.3345399215064259e-11
2.189183417039316e-11
3.777200094021416e-11
6.843092929319851e-11
1.289409588377195e-10
2.491995376510175e-10
4.870310441747056e-10
9.511784523960444e-10
1.8402322118160757e-09
3.506327578700855e-09
6.5560898110766786e-09
1.200601407303227e-08
2.15155482304143e-08
3.7729099384717397e-08
6.47686513807428e-08
1.0893212005297562e-07
1.7966837586660523e-07
2.909146684534007e-07
4.6288745563397e-07
7.243972416360935e-07
1.1156877187933407e-06
1.6916513186749854e-06
2.525028170203418e-06
3.70886549987943e-06
5.357170347034932e-06
7.6024790879494245e-06
1.0589210298089816e-05
1.4462386967944321e-05
1.9352716826973624e-05
2.5360935703945967e-05
3.2546179576200376e-05
4.092401063036634e-05
5.047852124882683e-05
6.118901182098755e-05
7.306541904367677e-05
8.617969411504868e-05
0.00010067565595916355
0.00011674072425637916
0.00013453137413824715
0.00015405937883180876
0.00017506372238956143
0.00019690675229846961
0.00021853592695327302
0.0002385407239527948
0.0002553096892588677
0.00026726259944645086
0.00027310775692726596
0.0002720638929242933
0.00026399421349642186
0.0002494239804256978
0.0002294441018042587
0.00020553089651626248
0.0001793281434506488
0.0001524385667631885
0.00012626044447472057
0.00010188710346680963
8.006940563891086e-05
6.122881859278681e-05
4.550316545845034e-05
3.280778346534357e-05
2.2899133652960158e-05
1.5433201937170957e-05
1.0015359669255777e-05
6.240887216953415e-06
3.726287579757659e-06
2.131566692276649e-06
1.17361461555347e-06
6.311417335799522e-07
3.423185283959814e-07
1.9703336866165727e-07
1.2615168348083103e-07
9.011913742478376e-08
6.873152922645968e-08
5.31128992670999e-08
4.017196821959483e-08
2.92464218179189e-08
2.0368082153300047e-08
1.355023204311728e-08
8.61408201143965e-09
5.235965197813377e-09
3.0436618710718917e-09
1.6912629406393768e-09
8.973110519770009e-10
4.537646122254845e-10
2.182423810196964e-10
9.961962876509717e-11
4.310700708682665e-11
1.7718871022300504e-11
6.9900610866387976e-12
2.7227143745412624e-12
1.1089528112061678e-12
5.08404394379846e-13
2.705270515034707e-13
1.5948317111148395e-13
9.693755018222178e-14
5.790043100918265e-14
3.326888549275938e-14
1.827077646713683e-14
9.58959477390803e-15
4.821505214090738e-15
2.3298134637119846e-15
1.0857893674933386e-15
4.894456643519526e-16
2.1368095523662726e-16
9.04944901474822e-17
3.7518432888298997e-17
1.553409981837456e-17
6.437711227236249e-18
2.4984144721709413e-18
8.316871255137272e-19
3.669232487296341e-19
6.7276220530098535e-19
3.6310414145551164e-19
1.373327885765278e-19
4.215453135161887e-19
1.947987617315001e-18
5.7090034123330464e-18
1.3803339382832297e-17
3.2011054595365073e-17
7.45855737695756e-17
1.7295367903801995e-16
3.9499731090132166e-16
8.915819641545139e-16
2.0057630432696446e-15
4.520653278174947e-15
1.0209389403929205e-14
2.301742647247748e-14
5.148156943257553e-14
1.1336999010267566e-13
2.439189647951102e-13
5.091338653020407e-13
1.0247034896945183e-12
1.977884712412567e-12
3.6425959335729854e-12
6.366176581461575e-12
1.049439501607049e-11
1.6210200310400902e-11
2.3350738935749188e-11
3.156950710441826e-11
4.197473871966361e-11
6.298585867041225e-11
1.260755257569964e-10
3.2166711472649584e-10
8.716308416390903e-10
2.2615478660355927e-09
5.460998183037648e-09
1.2260520843843885e-08
2.5746758873311325e-08
5.0921330661002895e-08
9.544431131911442e-08
1.7044792157946765e-07
2.9130878337823416e-07
4.78160881357668e-07
7.55739463015324e-07
1.1518542540342015e-06
1.6934684744633833e-06
2.3992300562961287e-06
3.2677517887278244e-06
4.262408996419145e-06
5.296126348197553e-06
6.223147464152786e-06
6.847799287362628e-06
6.960652322865402e-06
6.408036393508699e-06
5.190591611993047e-06
3.5719131572729824e-06
2.16393216111971e-06
1.948117319892571e-06
4.197124122935328e-06
1.0282730420671862e-05
2.1389247830517052e-05
3.818740876098772e-05
6.0549090704757425e-05
8.738699268313278e-05
0.0001166810062448432
0.00014570914395088222
0.00017144806543787036
0.00019106255767074385
0.00020237864610976895
0.00020423831816793555
0.00019666333491836062
0.00018080196767316034
0.00015868237972743179
0.00013283669275270313
0.00010588131407842151
8.013854625189686e-05
5.736462226993127e-05
3.861747746951624e-05
2.426321685651873e-05
1.4092067431954428e-05
7.498338908026542e-06
3.6761890702121796e-06
1.7916045406727052e-06
1.1062763981759658e-06
1.0456324248597133e-06
1.2168394277920104e-06
1.3907295213393465e-06
1.4640469477246e-06
1.416430522649183e-06
1.2721333749105022e-06
1.071559373770914e-06
8.536159278511343e-07
6.472683384022165e-07
4.695380073733568e-07
3.2715142349944333e-07
2.196358968223676e-07
1.4244864104168747e-07
8.943959921169994e-08
5.445751395643182e-08
3.219759888942055e-08
1.8503744404277823e-08
1.034335971940452e-08
5.626171755345621e-09
2.9788440250870906e-09
1.5360070827649585e-09
7.724582308242734e-10
3.8030959717236495e-10
1.8493173395942282e-10
9.044410862578257e-11
4.59177051179312e-11
2.5229215627881818e-11
1.548041215468289e-11
1.0570711177818448e-11
7.754815025008665e-12
5.867705132190878e-12
4.447154265872078e-12
3.320724933003196e-12
2.4229129312695346e-12
1.7207499670469447e-12
1.1874756506779125e-12
7.957910420010849e-13
5.18024883975126e-13
3.2798943310553633e-13
2.0261901112846473e-13
1.2287506483087087e-13
7.393993248534924e-14
4.489715173233719e-14
2.8120683825610004e-14
1.8559276670448923e-14
1.3046215641467917e-14
9.709185802952225e-15
7.509915623908768e-15
5.912320927309381e-15
4.660459560263143e-15
3.640868485757387e-15
2.8041635963010485e-15
2.124834567618907e-15
1.5835011264335585e-15
1.1609916056368023e-15
8.377248397072705e-16
5.948292301557316e-16
4.153319418916403e-16
2.8483967464417627e-16
1.916704376621695e-16
1.2660268360627789e-16
8.244231338794642e-17
5.3568450047627923e-17
3.555827834967099e-17
2.4932804671439503e-17
1.901755467171579e-17
1.5878849145171005e-17
1.428083969130698e-17
1.3613314555136334e-17
1.3763738859236105e-17
1.4941260625310697e-17
1.7492383090854385e-17
2.17633860725621e-17
2.805377503666919e-17
3.666825446217387e-17
4.802410369714563e-17
6.272849433702632e-17
8.153254395986428e-17
1.0511793694167731e-16
1.3378671066407583e-16
1.6729343665399532e-16
2.0524603332069677e-16
2.486543532353031e-16
3.0327638964287865e-16
3.8539606395534836e-16
5.306573057616414e-16
8.068202326972075e-16
1.3322120412517436e-15
2.3037506317731675e-15
4.04220003149414e-15
7.067882043532951e-15
1.2226748785963528e-14
2.0892705190687562e-14
3.527436156264922e-14
5.88494516538784e-14
9.693556965849943e-14
1.5738327625142676e-13
2.513565115023563e-13
3.9416770123980794e-13
6.06202285714704e-13
9.141754760827603e-13
1.35346581753513e-12
1.9734074768682156e-12
2.8499848498901295e-12
4.1161193243436266e-12
6.032348451807845e-12
9.147299963751297e-12
1.4650721043490405e-11
2.5123065910799624e-11
4.606707961711666e-11
8.891396660646183e-11
1.7668845685342173e-10
3.542628549050741e-10
7.062048863593762e-10
1.3867038046555937e-09
2.6680251390533495e-09
5.016509602585044e-09
9.208504089505224e-09
1.650320365394826e-08
2.889593798345214e-08
4.948510205870349e-08
8.300008695787255e-08
1.3655712916156853e-07
2.207338991817209e-07
3.510763825564702e-07
5.50160261248321e-07
8.503013037307389e-07
1.2969152777759437e-06
1.9523388178978295e-06
2.899629122828239e-06
4.245498238464692e-06
6.1212123633693165e-06
8.68017730276777e-06
1.209125340088953e-05
1.6527755454362257e-05
2.2153559800354742e-05
2.910940515766825e-05
3.750362915268e-05
4.741133437919993e-05
5.8883628486283814e-05
7.196414357940235e-05
8.670463592222966e-05
0.00010316732224001742
0.00012140140154628102
0.00014138686036577457
0.00016294999800332407
0.00018566915751301678
0.00020880062328637784
0.00023125783767909006
0.00025166848821554674
0.00026851447278662335
0.0002803349109660681
0.00028595086872251345
0.00028466045866350236
0.00027635860707449315
0.0002615552843379943
0.00024129246956458282
0.00021698450279768094
0.0001902212942804466
0.0001625759213395994
0.00013544910746885185
0.00010996794700414672
8.694082906913136e-05
6.685920285956512e-05
4.993143363068646e-05
3.6133941454550374e-05
2.526807425473829e-05
1.701544333739583e-05
1.0988025500437513e-05
6.771448734773806e-06
3.960647462398734e-06
2.1871357780987308e-06
1.137210836017527e-06
5.608891289287472e-07
2.723029047831946e-07
1.4332287186302165e-07
9.291380012626628e-08
7.489807365527301e-08
6.638145546848486e-08
5.8292546394152547e-08
4.8604057760198827e-08
3.809468509448483e-08
2.810050412286798e-08
1.9586568826843778e-08
1.2951630719665414e-08
8.150345483080305e-09
4.891601528609207e-09
2.8035142312772918e-09
1.535271706546809e-09
8.034813564464178e-10
4.0193145327253477e-10
1.9234191972772252e-10
8.828145964340004e-11
3.910886887267606e-11
1.6941839742181607e-11
7.345579524469746e-12
3.2959520514744206e-12
1.5815946869448954e-12
8.215789348218857e-13
4.5393215369689845e-13
2.5804263756404757e-13
1.4648015371259516e-13
8.145848642619365e-14
4.393998161558974e-14
2.2894855817612624e-14
1.1510639934185307e-14
5.58649024779021e-15
2.6201461067719126e-15
1.1889183884278094e-15
5.225348153916637e-16
2.2294199363862513e-16
9.280448017405085e-17
3.792623603577722e-17
1.5211535127003662e-17
5.9564544534571285e-18
2.3694403435893834e-18
1.1214788600451756e-18
1.0257054959976126e-18
3.5803769671827213e-19
4.373523941929578e-20
2.1204901838290102e-19
1.0170895970330592e-18
2.4667840398146854e-18
5.014806219095152e-18
1.101361743289709e-17
2.6367198715604743e-17
6.27254195486029e-17
1.438820363485425e-16
3.242509768773566e-16
7.340022993865694e-16
1.6844149658374827e-15
3.915115150519407e-15
9.161651568801297e-15
2.1388745659434358e-14
4.929213442811701e-14
1.1101463355929707e-13
2.423557853451257e-13
5.098073605858283e-13
1.0289911446279867e-12
1.9867776156007055e-12
3.661202265076302e-12
6.429791565271124e-12
1.0766265517456538e-11
1.728468642979654e-11
2.708650083044658e-11
4.3171001744497e-11
7.476077794089402e-11
1.4842367079517221e-10
3.3313217881083823e-10
7.908397904171125e-10
1.8690294699636343e-09
4.25539113924526e-09
9.215211645550037e-09
1.8927789135156532e-08
3.6929929890941025e-08
6.86652691067865e-08
1.221291014249564e-07
2.0858056764980585e-07
3.4323807799479176e-07
5.457303161708058e-07
8.398007503583562e-07
1.2513822195604292e-06
1.8038408098576426e-06
2.5092970914104476e-06
3.355949139965794e-06
4.2935966389395134e-06
5.222925051839578e-06
5.997494217777614e-06
6.448813502899986e-06
6.442062668374179e-06
5.961472721206137e-06
5.210899381059347e-06
4.700539339958115e-06
5.281352414547711e-06
8.091065418060025e-06
1.4393119850117663e-05
2.5320319318838296e-05
4.1569703852518764e-05
6.312199673334525e-05
8.906644658832871e-05
0.00011759454062054859
0.00014618712018835825
0.00017197004185184393
0.00019216873542399115
0.00020456528716858365
0.00020786040615505138
0.0002018661857740594
0.00018749629026940643
0.00016656641666347476
0.0001414576473696696
0.00011471953850443639
8.869423343289262e-05
6.522863755522577e-05
4.5514322960704985e-05
3.0062553302379314e-05
1.879304443148185e-05
1.1196160526540629e-05
6.522012451775311e-06
3.9554001124134265e-06
2.7488653936738518e-06
2.302203594371822e-06
2.1910082246744564e-06
2.1562674676138895e-06
2.0708365627176703e-06
1.8976541404460494e-06
1.6506842662271834e-06
1.3647164518850193e-06
1.075853144311142e-06
8.115614865434375e-07
5.877091143890908e-07
4.097515845027012e-07
2.757224698961827e-07
1.794498908899073e-07
1.1316989047209025e-07
6.926632750098485e-08
4.120136563250084e-08
2.3846399272113188e-08
1.3444370787360732e-08
7.392070683458523e-09
3.969329915776576e-09
2.0859419530669352e-09
1.0765120430122516e-09
5.488220966158961e-10
2.791532049197595e-10
1.4387111889654377e-10
7.673426797147718e-11
4.3321256688116423e-11
2.627879184442585e-11
1.7111530220417003e-11
1.1770961925873348e-11
8.367713793937746e-12
6.02686386626007e-12
4.335632688516105e-12
3.0864966324757986e-12
2.1620393946000547e-12
1.485255073693782e-12
9.989561491952518e-13
6.576129809780865e-13
4.2422056645744824e-13
2.6899857942310407e-13
1.6860382827442987e-13
1.0536610653720951e-13
6.642736748799265e-14
4.2817856241500895e-14
2.8549822920159125e-14
1.980350720261851e-14
1.4252235092136578e-14
1.0542337018032118e-14
7.919018634946727e-15
5.97466800268853e-15
4.4906469579175495e-15
3.344748881538469e-15
2.4612387992749417e-15
1.7863149587836853e-15
1.2773970874746623e-15
8.99105557065902e-16
6.219675316247659e-16
4.2191535235660575e-16
2.7980539412074105e-16
1.8076899267586048e-16
1.134465305191954e-16
6.921726060479342e-17
4.152200223418877e-17
2.5335806960436914e-17
1.6805357605494218e-17
1.3029423029122639e-17
1.1934550298603024e-17
1.2186872985445822e-17
1.308799270460658e-17
1.442758884931524e-17
1.6300374931450392e-17
1.8927208992718662e-17
2.2535202804231933e-17
2.7340001811901633e-17
3.363561422496649e-17
4.1946081831022994e-17
5.3151603000093816e-17
6.849543134009329e-17
8.942699601204582e-17
1.173456013713558e-16
1.534594081630527e-16
1.9912419066400242e-16
2.5711956940024237e-16
3.343109062175832e-16
4.460360712067168e-16
6.224503114494606e-16
9.172060459941774e-16
1.419640961584271e-15
2.273600842671734e-15
3.709572963145339e-15
6.10203572092589e-15
1.0070172491092664e-14
1.6645531299607753e-14
2.7531656013633077e-14
4.5473901487436294e-14
7.473826968873038e-14
1.2166383361867114e-13
1.9520675367234176e-13
3.073465981137653e-13
4.732047279554539e-13
7.107874285816496e-13
1.0405403861025373e-12
1.4856796564668819e-12
2.0762220577173635e-12
2.864251531765197e-12
3.968241786448693e-12
5.6859036955863686e-12
8.757969413565599e-12
1.4945531423024045e-11
2.8224627947997943e-11
5.71356137356018e-11
1.1919056653624846e-10
2.4878245430611274e-10
5.107970348647687e-10
1.0231413599640717e-09
1.9927156262427975e-09
3.771050787059717e-09
6.938108785303832e-09
1.2426032770888922e-08
2.1699789841004814e-08
3.702007449054669e-08
6.182746498744394e-08
1.0130761406332539e-07
1.6322594858985017e-07
2.591541725161197e-07
4.062403936236082e-07
6.296809590798636e-07
9.660061378267826e-07
1.4671599890580232e-06
2.205112741995342e-06
3.276399422725191e-06
4.805596383382723e-06
6.946464384544194e-06
9.879493797727588e-06
1.3805064584540294e-05
1.893244025814642e-05
2.546616879985647e-05
3.3592680410322383e-05
4.3470248777569605e-05
5.522436806202191e-05
6.894780311838705e-05
8.470074495127374e-05
0.00010250322181476804
0.00012231126648101098
0.00014397200880865912
0.00016716103315892535
0.00019131597078454
0.00021558934928929123
0.00023884654200591004
0.000259728110960449
0.0002767802003755665
0.00028863622078141647
0.00029421492027953134
0.00029289107185667196
0.000284599294939748
0.0002698479099635201
0.0002496425607243997
0.00022534083866525438
0.0001984726026641565
0.00017056299960058676
0.000142987538617497
0.0001168752528861257
9.306219845587373e-05
7.208731984315168e-05
5.4217809493314807e-05
3.949103616470481e-05
2.7763078109855733e-05
1.87577302609247e-05
1.2112943772542715e-05
7.423289709975783e-06
4.277363803637201e-06
2.288738582353749e-06
1.1188820832594347e-06
4.908778986066863e-07
1.9383077837191726e-07
7.917556680952938e-08
5.122690332135804e-08
5.482837775669143e-08
6.277225347909537e-08
6.493042067948924e-08
6.008393311529875e-08
5.057670203403887e-08
3.9343293403165456e-08
2.8614706068875972e-08
1.9619569711630517e-08
1.275483693096262e-08
7.89381041160842e-09
4.663812310311931e-09
2.6358765843404006e-09
1.427530706741369e-09
7.422422066891901e-10
3.7152746588291163e-10
1.79831793927532e-10
8.480305465188262e-11
3.942237397178336e-11
1.8370090010040458e-11
8.750895923748104e-12
4.3331072549118445e-12
2.243617192853001e-12
1.2054709226581304e-12
6.609899751695078e-13
3.6332468535408613e-13
1.9736810307095683e-13
1.0496045763048904e-13
5.43380086971395e-14
2.730169772281729e-14
1.3292835781330457e-14
6.266985493984366e-15
2.8597958797834762e-15
1.2629773402946979e-15
5.400905198217114e-16
2.23977505936801e-16
9.027614667062246e-17
3.5486399453757537e-17
1.376514189555436e-17
5.457995563723441e-18
2.3223780004254988e-18
1.7636799438609485e-18
7.765963389374012e-19
4.3114602921287473e-19
5.306773826419839e-19
8.976139403463012e-19
1.1956456985268608e-18
1.5302648476727008e-18
3.2865820542533882e-18
9.150185008529377e-18
2.2805309055928417e-17
5.113492116940086e-17
1.1227586494175875e-16
2.5367169485393085e-16
5.938058128942826e-16
1.4293405736810186e-15
3.504278041164467e-15
8.633675017168478e-15
2.1038226337041237e-14
5.00056501202151e-14
1.148503830667377e-13
2.535429482261621e-13
5.367194713026443e-13
1.0889484612934872e-12
2.1193065220402123e-12
3.96529105193043e-12
7.1654349079718006e-12
1.2619886734843161e-11
2.203179575966742e-11
3.9161807158852967e-11
7.316814721699587e-11
1.4670191274870618e-10
3.136985150479107e-10
6.949142001685762e-10
1.542630408049288e-09
3.3483630233271057e-09
7.007400387218942e-09
1.4051062708211258e-08
2.6953842453475444e-08
4.9523160417753034e-08
8.738889988532115e-08
1.4862279648297442e-07
2.4450643700303386e-07
3.903758663885332e-07
6.062370369263363e-07
9.164538460286124e-07
1.347376077040993e-06
1.9216138449750126e-06
2.6482606056772145e-06
3.5101626015499023e-06
4.452359000155119e-06
5.379288273924295e-06
6.170527016191613e-06
6.723407450380444e-06
7.024085025393016e-06
7.236663864106482e-06
7.785928867256304e-06
9.398833660818982e-06
1.3069626954709916e-05
1.9927443432998942e-05
3.1012156042645745e-05
4.699693694619636e-05
6.792282214629118e-05
9.302044309469067e-05
0.00012068100134674432
0.0001486046902257233
0.0001741099192626466
0.00019454460287746155
0.00020771397454156457
0.00021223503018267067
0.00020774581333624824
0.00019493214762699373
0.0001753753448879367
0.0001512615956298531
0.00012501891459234605
9.895601377206864e-05
7.4968928371983e-05
5.4359273052190185e-05
3.7779207211014825e-05
2.5290165290328123e-05
1.6501760471044494e-05
1.0747836624711946e-05
7.258728032642266e-06
5.299571819278892e-06
4.259417071665608e-06
3.6902205076135083e-06
3.305244665676507e-06
2.951467725593704e-06
2.570787629671329e-06
2.16163742255156e-06
1.7480514832839376e-06
1.3588493319974123e-06
1.0163997152322819e-06
7.326840517141079e-07
5.098970419463086e-07
3.4316924287198037e-07
2.237182493238187e-07
1.414885295089567e-07
8.693297116493317e-08
5.1961204754700814e-08
3.02544657969156e-08
1.7184504112055278e-08
9.537778651401302e-09
5.183870387728392e-09
2.767320547184445e-09
1.4573437491701286e-09
7.619975455988402e-10
3.992287982062428e-10
2.121665065996301e-10
1.1602751124720332e-10
6.619449440079085e-11
3.974195557772586e-11
2.5120568204475213e-11
1.6589402905279728e-11
1.130582104085361e-11
7.848848220336513e-12
5.488867878341235e-12
3.83337543142715e-12
2.6569992364340688e-12
1.820010500004525e-12
1.2289325622208853e-12
8.172126541088128e-13
5.355191362360651e-13
3.466548293722547e-13
2.226404980084286e-13
1.4277973114223273e-13
9.216012630283209e-14
6.037697471169394e-14
4.0423517357681434e-14
2.7751258925133726e-14
1.951182238452896e-14
1.397884341710593e-14
1.0132312987671934e-14
7.37688817912204e-15
5.361971552475604e-15
3.873426874738139e-15
2.772170744071953e-15
1.9612873513281594e-15
1.3692391786277957e-15
9.414535765850226e-16
6.358975480958923e-16
4.203846512109738e-16
2.705907913063529e-16
1.683930265064741e-16
1.0043094442559455e-16
5.689156311698816e-17
3.0536608061154806e-17
1.5977046560745784e-17
9.176329382433349e-18
7.140101822353271e-18
7.732094015468472e-18
9.549483694474099e-18
1.1800900849852478e-17
1.4156348291876033e-17
1.6573704596113273e-17
1.913845586328998e-17
2.196792160751319e-17
2.5219496045490246e-17
2.9205474310806486e-17
3.4567996815581324e-17
4.2428814437818896e-17
5.442435208469016e-17
7.258386262913417e-17
9.910739820395176e-17
1.362282111862119e-16
1.8645683081523507e-16
2.535475377206794e-16
3.444634089845842e-16
4.724566051207846e-16
6.612339989544215e-16
9.502822212990856e-16
1.4021525372301769e-15
2.114305126662887e-15
3.2413668341694153e-15
5.03842216702005e-15
7.941600088261637e-15
1.2707006357986292e-14
2.062983265158958e-14
3.3857663357820174e-14
5.579011296441916e-14
9.151589486592136e-14
1.4817589125090292e-13
2.3506081258879355e-13
3.6317183172532725e-13
5.439376842014445e-13
7.869024198423793e-13
1.0967332267178721e-12
1.4714309711106386e-12
1.907395435826628e-12
2.4254486619624053e-12
3.1495260135188736e-12
4.504051316573336e-12
7.658721332875925e-12
1.5457111929099236e-11
3.4239390810184e-11
7.723349961382027e-11
1.7056672315620746e-10
3.6345895240371544e-10
7.448125731760934e-10
1.4692281673449167e-09
2.7965044377449894e-09
5.150092379624129e-09
9.202179722430153e-09
1.5996924719878025e-08
2.713030647839814e-08
4.5017282068899165e-08
7.329703133274602e-08
1.1745707499598056e-07
1.8579649538156608e-07
2.908913632090982e-07
4.517568540651664e-07
6.968945888731389e-07
1.0683359837755366e-06
1.6266094608075833e-06
2.4562575537552753e-06
3.6711394978817498e-06
5.418369677274793e-06
7.879518157651472e-06
1.1267814529041826e-05
1.5820667967562424e-05
2.1787796713430587e-05
2.9416359850468482e-05
3.893519708276913e-05
5.0540059390729125e-05
6.438027178266567e-05
8.054491432178345e-05
9.904437237219803e-05
0.00011978251682732872
0.00014251719098423737
0.00016681242580980638
0.0001919935098219281
0.00021712268916574534
0.00024101519780913053
0.00026230987206195716
0.00027959579725570085
0.0002915795941772998
0.0002972628423535125
0.0002960917149395326
0.00028804468342618836
0.00027363848986452073
0.00025385277125821376
0.00022999293558879704
0.0002035230391432479
0.00017590248643637338
0.0001484532478731235
0.00012227183082463212
9.818732026953469e-05
7.67573206164746e-05
5.8289340335562253e-05
4.287563363576362e-05
3.0432893925623428e-05
2.0742264364635806e-05
1.348818620980224e-05
8.295897255066841e-06
4.7671200843910515e-06
2.5124539326900924e-06
1.1781476575470382e-06
4.6493211550750145e-07
1.3755399193647363e-07
2.5219092478151434e-08
1.4714962249443726e-08
3.8995988082035713e-08
6.421907509934762e-08
7.769260454815449e-08
7.825779173203791e-08
6.963008421261059e-08
5.646637727823488e-08
4.25079434898648e-08
3.005057140284252e-08
2.0103396162040793e-08
1.2794795579211218e-08
7.777390624998356e-09
4.5290567225443595e-09
2.5337324593851785e-09
1.365793224721474e-09
7.120309107960654e-10
3.608458837526306e-10
1.7904223675309556e-10
8.781468019032219e-11
4.307745505110582e-11
2.1393877118152313e-11
1.085928429170701e-11
5.653461130792966e-12
3.0078729679536453e-12
1.6209177716444563e-12
8.751924065310355e-13
4.687500916626113e-13
2.470886115441904e-13
1.2746033024693686e-13
6.409126942136837e-14
3.132653272963358e-14
1.4851833720418954e-14
6.81689795392287e-15
3.0238239175607257e-15
1.2940108013932569e-15
5.333688663990556e-16
2.1150895256757338e-16
8.079368407051447e-17
3.000027414670519e-17
1.110452233195104e-17
4.271540040986089e-18
2.7413530442850093e-18
1.512579242797166e-18
1.1587594932834194e-18
1.1244213799816433e-18
1.0691199037564792e-18
6.625535025385667e-19
1.8836467395956463e-19
8.035356345767616e-19
3.621101952809769e-18
8.898751518417058e-18
1.7647100209319593e-17
3.59346490812853e-17
8.102580203711189e-17
1.952374593899584e-16
4.908850958808145e-16
1.2784262886280628e-15
3.3805788683223563e-15
8.835051598482296e-15
2.2370217736683568e-14
5.4327754965250274e-14
1.26141676193536e-13
2.801662575578406e-13
5.968123781881205e-13
1.2241440935227784e-12
2.4298902777949888e-12
4.698390939229333e-12
8.930433821887946e-12
1.689976368252548e-11
3.235431421479467e-11
6.365691617140621e-11
1.2981891983049957e-10
2.733415621452987e-10
5.853971124309365e-10
1.2510862155447328e-09
2.623822748516475e-09
5.3372519212721325e-09
1.046056462445796e-08
1.970159247667733e-08
3.5668285902964465e-08
6.222039890492005e-08
1.0497824461746804e-07
1.7208074171152835e-07
2.752454550750114e-07
4.3100376736825063e-07
6.616180144889979e-07
9.946993655859803e-07
1.460192467897385e-06
2.083627194585874e-06
2.8758491840606554e-06
3.822018553433658e-06
4.875985138841208e-06
5.96873752992326e-06
7.039327742859718e-06
8.09157517713466e-06
9.269622588602618e-06
1.0932428695056141e-05
1.3696631854777874e-05
1.841510368801714e-05
2.606931495274509e-05
3.7577027380733954e-05
5.354657892498885e-05
7.403467207238469e-05
9.837549428404084e-05
0.000125139171058792
0.00015224847858556534
0.00017724307194854017
0.0001976425243155535
0.0002113344262918672
0.00021690799396213185
0.0002138671984619476
0.0002026853346437964
0.000184697390170172
0.0001618593735489877
0.00013642805982234056
0.00011062593303295953
8.63529325721054e-05
6.499064928469723e-05
4.73204650455701e-05
3.355117744136342e-05
2.3430325683564506e-05
1.6401338697532383e-05
1.176730726287573e-05
8.83000140473587e-06
6.985856806195865e-06
5.774536000904395e-06
4.886673349708382e-06
4.143615530791747e-06
3.4632933652147804e-06
2.8240601730335277e-06
2.234213506597521e-06
1.7106397810737463e-06
1.266678457906812e-06
9.073258079533905e-07
6.291951727900649e-07
4.2284134043830915e-07
2.756981105964612e-07
1.7461089345060558e-07
1.07553053931107e-07
6.451268314218288e-08
3.7734926316078295e-08
2.1558192595369495e-08
1.2053115672844206e-08
6.61147461256596e-09
3.570062991934929e-09
1.9064597640258788e-09
1.0130748194897973e-09
5.400127279060432e-10
2.9156357630824624e-10
1.6113662995045796e-10
9.203081333982853e-11
5.466583861437658e-11
3.3823384315181554e-11
2.1725205173096972e-11
1.4385505299968995e-11
9.735334491826918e-12
6.675366712556187e-12
4.601902293005164e-12
3.169392070220661e-12
2.1701757661260907e-12
1.4725837743531782e-12
9.885597260456108e-13
6.564897753255306e-13
4.319348854836919e-13
2.82434716300556e-13
1.8436008570675027e-13
1.2077832956751366e-13
7.984049535937562e-14
5.348545903482734e-14
3.638877286571609e-14
2.513130282442302e-14
1.7569245017376278e-14