# vtk DataFile Version 4.1 
COMMENT
ASCII
DATASET STRUCTURED_POINTS 
DIMENSIONS 300 300 1 
ORIGIN 0 0 0
SPACING 0.020943951023931952 0.020943951023931952 0 
POINT_DATA 90000
SCALARS U double 1
LOOKUP_TABLE default
2.3802601429800524e-20
1.7564076038945356e-20
1.3654581555104348e-20
1.0504127045187999e-20
1.5489744706897842e-20
3.9135772329172847e-20
9.453163458490348e-20
2.063133103268936e-19
4.302240864397285e-19
8.847164799971923e-19
1.803202860654591e-18
3.6275030798644624e-18
7.176530755358507e-18
1.393896591722444e-17
2.6557057356534918e-17
4.95906715734252e-17
9.066656120889598e-17
1.6210678070917796e-16
2.830729732730674e-16
4.821682554736723e-16
8.00343213321406e-16
1.2938174969177611e-15
2.0362210709280428e-15
3.1177102216694512e-15
4.636726791640368e-15
6.680613073247425e-15
9.300496800313874e-15
1.2504154649667674e-14
1.629757850475888e-14
2.07608444400755e-14
2.6034944252043133e-14
3.202649279423499e-14
3.7824281099721474e-14
4.136058637474174e-14
4.033225718641914e-14
3.4905104567803044e-14
3.073973514881475e-14
3.8647244087444583e-14
6.780246137627357e-14
1.151330231788523e-13
1.6163375856148464e-13
1.8901172739275798e-13
2.2063563599509446e-13
3.736514823747439e-13
9.020186311659287e-13
2.2320289911331577e-12
5.044133650555341e-12
1.0515951873365554e-11
2.088542762994639e-11
4.0522867421395873e-11
7.776378732250519e-11
1.4792580998903905e-10
2.7827358217422944e-10
5.162268475275718e-10
9.428200588257101e-10
1.6943147302554632e-09
2.9959572357723624e-09
5.213163059731112e-09
8.926764474280558e-09
1.5039985911847015e-08
2.492471842596859e-08
4.061220030126468e-08
6.502673171335643e-08
1.0224882577773974e-07
1.5777506639746073e-07
2.387163841331846e-07
3.538479151029725e-07
5.133995726494644e-07
7.284685583536245e-07
1.0099571438673058e-06
1.367002979381813e-06
1.8049783770778359e-06
2.3232781582411626e-06
2.9132632194348415e-06
3.5568340461232683e-06
4.226125422166739e-06
4.88470357478944e-06
5.490403945024235e-06
5.999608365285607e-06
6.372401964461031e-06
6.577771973651e-06
6.597903371809712e-06
6.430739294606425e-06
6.090294094367211e-06
5.604657796106088e-06
5.012095723480854e-06
4.356005942003449e-06
3.67966388716411e-06
3.021631224305896e-06
2.412470223168521e-06
1.8730664143560023e-06
1.414517099880544e-06
1.0392727797125082e-06
7.430691439163493e-07
5.171648693868679e-07
3.5047824295834846e-07
2.3134958329130208e-07
1.4880164062319353e-07
9.329270294658243e-08
5.703927603831769e-08
3.402438189657325e-08
1.9811659404247992e-08
1.1267161109002815e-08
6.26250253392254e-09
3.4043188548553956e-09
1.8113734291796328e-09
9.442145898213562e-10
4.826774741651947e-10
2.4224879990951233e-10
1.195205905157859e-10
5.805374893192364e-11
2.7805744089334496e-11
1.3156919035627743e-11
6.162856879294152e-12
2.8642010805726395e-12
1.323973101083478e-12
6.102356831750176e-13
2.8111033829805743e-13
1.2965597396174704e-13
5.991296357988868e-14
2.7702105948115155e-14
1.27665020984368e-14
5.823534806154929e-15
2.6053617658815665e-15
1.1351088692688792e-15
4.868446185302189e-16
2.212493208194857e-16
1.2770948999917005e-16
1.0523930954433831e-16
1.0650140574538772e-16
1.1078262305353489e-16
1.1051543201094136e-16
1.0434613512994247e-16
9.35161798177204e-17
8.000796587297749e-17
6.566723023162386e-17
5.186855836907629e-17
3.9468370939634196e-17
2.888998591026855e-17
2.024897909462458e-17
1.3470036597681741e-17
8.375080808542712e-18
4.739870993727974e-18
2.325171249789633e-18
8.915464327957066e-19
2.062550574793448e-19
4.8394810603406704e-20
2.1563807794855422e-19
5.332830315187671e-19
8.643490276807155e-19
1.1183205402216614e-18
1.2560282726190232e-18
1.2890049505809166e-18
1.2731803432968098e-18
1.2984848552706374e-18
1.4772399860427203e-18
1.9346792908959752e-18
2.80439453244446e-18
4.230057304514666e-18
6.3726934516412034e-18
9.42029397718019e-18
1.3593670519333254e-17
1.9139226602538163e-17
2.6296211837071766e-17
3.5224783184332463e-17
4.5885570683367647e-17
5.787766889371281e-17
7.027841496658467e-17
8.159383440785552e-17
9.002925093495879e-17
9.442312622513733e-17
9.633641130281703e-17
1.0391458584074618e-16
1.381722979307405e-16
2.4219716181078696e-16
4.933247965091864e-16
1.0175196701301108e-15
2.0040021908565683e-15
3.7167350621239715e-15
6.498070163021923e-15
1.0759225320863022e-14
1.6952999998592252e-14
2.552684923047501e-14
3.685928161012212e-14
5.1188890313466665e-14
6.855149815338565e-14
8.874434970207179e-14
1.1133426625363954e-13
1.3571741299063606e-13
1.6122230142145534e-13
1.8722839745053922e-13
2.1325634403053073e-13
2.3897902838141615e-13
2.6410984718204293e-13
2.8814553474269343e-13
3.0997355109260014e-13
3.2740307148982e-13
3.3677386648351275e-13
3.3301806384080057e-13
3.1105291081832484e-13
2.704494696623273e-13
2.2750700004902246e-13
2.435105529938959e-13
4.887342393879256e-13
1.3885885389597642e-12
3.9661132363944345e-12
1.0661497333315197e-11
2.7298357627364838e-11
6.772692384972076e-11
1.6447686928990556e-10
3.923398841063245e-10
9.185981295239149e-10
2.1058737056373296e-09
4.714584510826314e-09
1.028603258527711e-08
2.1838837022984767e-08
4.508391094344047e-08
9.045467199713594e-08
1.7634743983660265e-07
3.3404246044126147e-07
6.147755952737078e-07
1.0992762625707158e-06
1.9096846541421983e-06
3.223026495982906e-06
5.28432819141774e-06
8.416086585048593e-06
1.3019427186598251e-05
1.956135247430703e-05
2.8542610314707815e-05
4.0442520297863106e-05
5.564096325308991e-05
7.432351849750262e-05
9.63825218327492e-05
0.00012133293346564938
0.0001482651794516674
0.00017585552473490753
0.00020244695205424488
0.00022620051427823967
0.00024530118466123245
0.00025818736114884515
0.00026376382859393346
0.0002615575430654469
0.00025178510950080196
0.0002353183487013265
0.00021355543534140318
0.00018822412828126378
0.00016115567132614247
0.00013407031636324625
0.0001084083711833464
8.522707809046038e-05
6.51677902188181e-05
4.8484053529232735e-05
3.511222752589107e-05
2.4763189306479445e-05
1.701570896888468e-05
1.1397403173156123e-05
7.445627084904898e-06
4.746494135167857e-06
2.954386755511187e-06
1.7965562347760754e-06
1.0679726470003273e-06
6.210166580389277e-07
3.5347620621632307e-07
1.9707605689302268e-07
1.0770624355328996e-07
5.774467710903635e-08
3.0394290033384395e-08
1.5719530200399247e-08
7.995130376897759e-09
4.002498095049298e-09
1.973988798029037e-09
9.599702781200347e-10
4.607447595063456e-10
2.1844160594049837e-10
1.0238880320461016e-10
4.7485680056423485e-11
2.180683452936246e-11
9.922938709508803e-12
4.4768414432502314e-12
2.0036379151467854e-12
8.899827832827496e-13
3.924869610344144e-13
1.7190435811520642e-13
7.479578288282356e-14
3.233583879482772e-14
1.3892418883219806e-14
5.9321753990752074e-15
2.5178953311090933e-15
1.0623953950919825e-15
4.456429429156998e-16
1.8584446772544455e-16
7.704786939998099e-17
3.175606713467974e-17
1.3017429388076885e-17
5.3133761804968724e-18
2.161648234601028e-18
8.729302714602802e-19
3.4410210960495158e-19
1.294702580201333e-19
4.86592404120056e-20
1.164320953098938e-19
5.565739910584991e-20
2.1155937825721133e-20
3.0908551830251722e-21
5.487518423139427e-21
3.0812735515830675e-20
8.056199358014372e-20
1.69797344611313e-19
3.4886124451123584e-19
7.306912942949192e-19
1.5365082972768548e-18
3.1886900367849485e-18
6.493052021485984e-18
1.296804819937788e-17
2.5404539912545823e-17
4.877964844454077e-17
9.169075744905055e-17
1.6849625971608658e-16
3.0231800762300276e-16
5.289521750888237e-16
9.015287745276042e-16
1.4953890184140756e-15
2.4119295385140813e-15
3.7789081685032635e-15
5.743419625754089e-15
8.454653702523897e-15
1.2039870198338173e-14
1.6587406308120384e-14
2.215081937217244e-14
2.8755918523950696e-14
3.6332000149543574e-14
4.4479535531775306e-14
5.215675201265891e-14
5.771166687587239e-14
5.984521404251706e-14
5.947795508932725e-14
6.10303819483797e-14
7.056818646316582e-14
8.975873899262493e-14
1.0931373600744065e-13
1.102882374531901e-13
8.016443963320674e-14
4.0235389294113003e-14
6.81976832055874e-14
2.99726778904069e-13
9.15378090671145e-13
2.1571698909619784e-12
4.449686117689529e-12
8.706004801987053e-12
1.6891943947677663e-11
3.29498378014286e-11
6.430133593040727e-11
1.2438982070698723e-10
2.370867420535291e-10
4.442674771156636e-10
8.184925903067839e-10
1.483590816942331e-09
2.647121516825974e-09
4.650207990962589e-09
8.04189611306534e-09
1.3686507441549938e-08
2.291249474485524e-08
3.7708639149832596e-08
6.096617856707261e-08
9.675167123843987e-08
1.5057386112667167e-07
2.2957936858291323e-07
3.425811406074547e-07
4.99799456044895e-07
7.121915033382117e-07
9.902774067078295e-07
1.3424494781823797e-06
1.7728776183140209e-06
2.279279622128192e-06
2.850973312779229e-06
3.4677165588233656e-06
4.099820470485722e-06
4.709860112616814e-06
5.2560145833862684e-06
5.69669983976194e-06
5.995806610959098e-06
6.127627303467961e-06
6.080531501936237e-06
5.858656000815277e-06
5.481269651798872e-06
4.979954376537218e-06
4.394183467490279e-06
3.766163649969742e-06
3.1358752877783053e-06
2.537098770908852e-06
1.994916434393466e-06
1.5248230232120187e-06
1.1332583970714027e-06
8.191611505863062e-07
5.760574667743576e-07
3.9423311689984363e-07
2.6264943413161695e-07
1.7040911923953058e-07
1.0771405916373876e-07
6.635912715104725e-08
3.986401230694256e-08
2.3363490488699202e-08
1.3366564804689702e-08
7.469738132296358e-09
4.080439305345973e-09
2.1806067987856238e-09
1.1410822312851712e-09
5.85303224202133e-10
2.9463733199831117e-10
1.4575637762407726e-10
7.096912189301783e-11
3.406957398869346e-11
1.615686003343239e-11
7.58495077731956e-12
3.532780146109454e-12
1.6361040869154998e-12
7.549373694390481e-13
3.4758868614537435e-13
1.597688588461611e-13
7.323009795954715e-14
3.3347330225018805e-14
1.4976828255731767e-14
6.551159880925571e-15
2.7356654793618054e-15
1.0577104977851327e-15
3.6365089794732766e-16
1.1204505440633434e-16
4.853744846140655e-17
5.504436013761431e-17
7.88596283127788e-17
9.871673044982474e-17
1.0819522813541411e-16
1.0745914094691701e-16
9.912814490066747e-17
8.627346335169898e-17
7.15360481512015e-17
5.683734631718435e-17
4.3386884469379825e-17
3.1816847105980956e-17
2.23483530288704e-17
1.494104248430357e-17
9.407064925824007e-18
5.487763881076129e-18
2.899851404036897e-18
1.3606168235252984e-18
6.011443593787134e-19
3.7436456389187036e-19
4.621138147331796e-19
6.828272018829402e-19
8.994102029699858e-19
1.0255062785739607e-18
1.0280051552047923e-18
9.242515257807341e-19
7.737873016020195e-19
6.661173492900194e-19
7.073473011687547e-19
1.0091185711966691e-18
1.6828330120446552e-18
2.8407710983548774e-18
4.603572878062591e-18
7.110851791377138e-18
1.0528511453664036e-17
1.504273490441117e-17
2.082721140265002e-17
2.7968731076165707e-17
3.634042428087188e-17
4.5427388890687255e-17
5.4143612751689985e-17
6.073933191853798e-17
6.298854406891629e-17
5.896388842396781e-17
4.883356628365643e-17
3.8216051329981483e-17
4.3643505255666334e-17
1.0053356375317698e-16
2.7366313528156267e-16
6.694099545335897e-16
1.44797897028227e-15
2.8325895755854447e-15
5.111474218356067e-15
8.628028955006364e-15
1.3755182774339283e-14
2.085256744185914e-14
3.020955266447642e-14
4.1983121088367663e-14
5.6145395436517843e-14
7.245902407141584e-14
9.04969121472624e-14
1.0971405785888413e-13
1.2956367904277043e-13
1.4963053258251983e-13
1.6973732365823892e-13
1.899726485568315e-13
2.1059700402841365e-13
2.3180969470198863e-13
2.534042459278577e-13
2.7440705761184257e-13
2.9290176230245863e-13
3.0643375192766564e-13
3.137402338468804e-13
3.191751776097378e-13
3.4232644545824175e-13
4.3765268757891885e-13
7.347737462110811e-13
1.5259977472773886e-12
3.471044968398219e-12
8.100078979655403e-12
1.9061712489669396e-11
4.5156755822625e-11
1.0745273184835644e-10
2.5529023137860903e-10
6.008087053128305e-10
1.3904289058051393e-09
3.147095434425125e-09
6.942519121775574e-09
1.4898298411414637e-08
3.107223741069242e-08
6.29619949196062e-08
1.2394579608438427e-07
2.3705987912532357e-07
4.4054644347842446e-07
7.955338358254678e-07
1.3959539415408036e-06
2.380279459070335e-06
3.943825537688287e-06
6.3492340865197186e-06
9.931504314128137e-06
1.5092877368526705e-05
2.2282511916253258e-05
3.195675753195106e-05
4.451839507189906e-05
6.0237573917713036e-05
7.916286512182159e-05
0.00010103670929079586
0.00012523384222717088
0.00015074214047603747
0.00017620132531953072
0.00020000582844090632
0.00022046517797003602
0.00023600137361245887
0.000245351634720286
0.00024774013659027895
0.00024298593833573252
0.00023152596224143256
0.00021434889356680638
0.0001928538508388844
0.00016866196251644804
0.00014341610347217744
0.00011860274401764232
9.542133516029324e-05
7.471391289948225e-05
5.695435629929407e-05
4.228617890735045e-05
3.059174094094984e-05
2.1574634691710298e-05
1.4839727550647373e-05
9.960275537222548e-06
6.526933837009794e-06
4.178098502099988e-06
2.614139430541491e-06
1.5996264475925106e-06
9.578949726608116e-07
5.617040164481198e-07
3.2276012384301646e-07
1.8186084985977645e-07
1.0055457389143356e-07
5.4600382370376335e-08
2.913799587748872e-08
1.529474657985551e-08
7.903137626035227e-09
4.023391913378968e-09
2.0196820117726566e-09
1.000532727941529e-09
4.895420784783287e-10
2.36755630988449e-10
1.1326274318940131e-10
5.363580447186283e-11
2.5158461665667785e-11
1.1695777407223668e-11
5.3915814183625375e-12
2.4657189265009833e-12
1.119134713946616e-12
5.042875426456364e-13
2.2565967412076417e-13
1.003026208244438e-13
4.429340265814508e-14
1.9435967456017443e-14
8.475674493746581e-15
3.673621224480057e-15
1.5827344919458354e-15
6.778720282689863e-16
2.886314287291584e-16
1.2219365976291444e-16
5.144810139825079e-17
2.154817625264134e-17
8.973194653404779e-18
3.705581358302843e-18
1.5117642050736227e-18
6.123974926265221e-19
2.554502956260779e-19
4.980569079554632e-19
2.0285161456557885e-19
6.562951203369254e-20
1.3523269573713955e-20
1.4485272078608338e-20
4.197326988585655e-20
7.838513145237643e-20
1.3420472915023722e-19
2.636617639775787e-19
5.771925272786479e-19
1.275122369247324e-18
2.741607197224711e-18
5.743588381692125e-18
1.1793534316354054e-17
2.377537171823474e-17
4.700250486481675e-17
9.095727418405124e-17
1.720222864776986e-16
3.1751932395269135e-16
5.712743490513559e-16
1.0006575869638458e-15
1.7044965859764106e-15
2.820289051748447e-15
4.5277347500508246e-15
7.044314662648649e-15
1.0609078141195513e-14
1.5454828499959183e-14
2.177504738166203e-14
2.969118511198817e-14
3.9207123524820885e-14
5.0110807657810946e-14
6.180322718954245e-14
7.316708643334473e-14
8.277854842747298e-14
8.973706963851801e-14
9.481409492031841e-14
1.0067464637674326e-13
1.0967857072139165e-13
1.195200462406651e-13
1.203992188970816e-13
9.93827317664034e-14
5.4044828065664477e-14
8.418834242869963e-15
1.712328067700766e-14
1.4885014880191555e-13
4.612328353781401e-13
1.0035932743960188e-12
1.8925440207898815e-12
3.4902035446086236e-12
6.695536576918692e-12
1.3376539119798342e-11
2.7059418130193897e-11
5.4157112214224253e-11
1.062482113370269e-10
2.0420712911411805e-10
3.853865549261073e-10
7.156693386447753e-10
1.3091645082849865e-09
2.3597027734595607e-09
4.190054667943454e-09
7.3267081621044065e-09
1.2609534050658988e-08
2.1345687352703068e-08
3.5513992471690864e-08
5.8017668367514285e-08
9.296736728302845e-08
1.459519760449333e-07
2.2422298959323673e-07
3.366854661187857e-07
4.935659681164881e-07
7.05631244902978e-07
9.82876926010498e-07
1.3327028960108705e-06
1.7577363419884003e-06
2.253629005757336e-06
2.8072958750728285e-06
3.3961217659774168e-06
3.988591358895611e-06
4.546578743908944e-06
5.029192504840587e-06
5.397688223838934e-06
5.620639017920074e-06
5.67840042065902e-06
5.565982071172435e-06
5.293741498897712e-06
4.885770323270957e-06
4.3763278271297944e-06
3.8050608331557023e-06
3.2119366777389215e-06
2.632775585809567e-06
2.096035342800976e-06
1.621159232612222e-06
1.21844872182442e-06
8.901502403745653e-07
6.32298025204515e-07
4.368369071778482e-07
2.93630886909778e-07
1.920992189806073e-07
1.2236569206153403e-07
7.592539200114797e-08
4.5910054319226637e-08
2.706714104382609e-08
1.556810116604045e-08
8.741015535738234e-09
4.794362874992218e-09
2.5709584347655234e-09
1.3491419179183355e-09
6.935570332566726e-10
3.497055563312007e-10
1.7319398807227116e-10
8.438704732663713e-11
4.052538332740836e-11
1.9220801568098817e-11
9.023286261608926e-12
4.2023716139196836e-12
1.9458506866648245e-12
8.974455242328218e-13
4.1273742731010375e-13
1.8925588224887412e-13
8.634403810229999e-14
3.899975413687415e-14
1.7278637643265984e-14
7.389980207159185e-15
2.968392562967657e-15
1.0642039353226907e-15
3.047535226751079e-16
4.9952673214609055e-17
2.6867797364006066e-18
2.7680214259334806e-17
6.637064712387041e-17
9.636566813645126e-17
1.1186109624116918e-16
1.1409266839309836e-16
1.0670327244483508e-16
9.357979455069248e-17
7.79528868158067e-17
6.213859523811144e-17
4.7588220225374103e-17
3.5062895586071963e-17
2.4833873979032138e-17
1.685986557248492e-17
1.0923031361321957e-17
6.722387407121764e-18
3.931771781288051e-18
2.2323553011311305e-18
1.3293234985723272e-18
9.604340412898764e-19
9.016212181781196e-19
9.722238506035698e-19
1.0401366398874496e-18
1.0255749553452318e-18
9.014858509113767e-19
6.890357782876875e-19
4.478716411277332e-19
2.625213477979651e-19
2.277708233019225e-19
4.365957590877718e-19
9.739444718761815e-19
1.918343814875942e-18
3.351088642007727e-18
5.3698536382077224e-18
8.100065469448725e-18
1.1693526004801912e-17
1.630032073596143e-17
2.199878498366936e-17
2.8672604211228894e-17
3.583904979421904e-17
4.246405596708481e-17
4.685403059678363e-17
4.6793527935882805e-17
4.019784643877353e-17
2.665444274123871e-17
1.0305058667012927e-17
4.5213578482567086e-18
3.868380272497422e-17
1.6701368176708622e-16
4.787764776837607e-16
1.1082724258827828e-15
2.2419651321224225e-15
4.11913365364727e-15
7.022000543202773e-15
1.1251939645784143e-14
1.7090617025563996e-14
2.4748977016873208e-14
3.4312438167110846e-14
4.569622209420178e-14
5.862825475926104e-14
7.267600370953178e-14
8.732593300228929e-14
1.0210971608118012e-13
1.16752471210173e-13
1.3130056504889395e-13
1.4617734230848316e-13
1.6212159325039892e-13
1.7999041624298688e-13
2.0045748532899218e-13
2.2371186992775916e-13
2.493686058994313e-13
2.769539289787095e-13
3.075392921155432e-13
3.473762157199675e-13
4.1477680334531625e-13
5.523422571988838e-13
8.494372402227494e-13
1.489165686437003e-12
2.8621254510570886e-12
5.863922032426242e-12
1.2674362177755531e-11
2.8722641885868187e-11
6.740293744315378e-11
1.608391330142853e-10
3.833494669999486e-10
9.004803740477346e-10
2.067524525693532e-09
4.620123199153794e-09
1.0029417856232897e-08
2.1138823838021554e-08
4.3260743124777946e-08
8.598658701969518e-08
1.6604034867218636e-07
3.1155830805516437e-07
5.681605120653422e-07
1.0070305779557184e-06
1.7348671526664537e-06
2.9049538251731757e-06
4.727704018715174e-06
7.4779569842896845e-06
1.1495248435715448e-05
1.7172619110704595e-05
2.4929724672525914e-05
3.516752563940388e-05
4.82049227865396e-05
6.420220947090322e-05
8.308142261870223e-05
0.00010445831117096146
0.00012760309294113654
0.00015144594917765075
0.0001746375237647869
0.000195664965524034
0.0002130120787321825
0.0002253408238049443
0.00023166395959715188
0.0002314775625980477
0.00022482839081673262
0.0002123033994801711
0.00019494415224080488
0.00017410346501531263
0.00015127172874149358
0.00012790374998948562
0.00010527339050557453
8.437443276627457e-05
6.587478404873333e-05
5.0120385183163144e-05
3.7177343546446946e-05
2.689698582338056e-05
1.8988599335097195e-05
1.3087566967256548e-05
8.810971845084771e-06
5.797214833387922e-06
3.729812528903002e-06
2.3478897361354186e-06
1.4469464782501637e-06
8.735393433673006e-07
5.169507936797469e-07
3.0008518879530893e-07
1.7098996189341363e-07
9.570599781931044e-08
5.2658777593016654e-08
2.8503192890450346e-08
1.5189413144819242e-08
7.975355140606124e-09
4.129122056131527e-09
2.1095903954834574e-09
1.0643849681457115e-09
5.307336104073835e-10
2.6171874600992114e-10
1.2772011121962425e-10
6.171855792281856e-11
2.954935596096516e-11
1.4024149208793994e-11
6.600824691901242e-12
3.082385211122982e-12
1.428547631584917e-12
6.572849493596103e-13
3.0031567213042963e-13
1.3629073210681665e-13
6.144748549467665e-14
2.7527428215926073e-14
1.2255064799289727e-14
5.4226374300677006e-15
2.3850694583195374e-15
1.0428848525576488e-15
4.533890357917764e-16
1.960009756615675e-16
8.425582052634971e-17
3.600389726927843e-17
1.5284141518821914e-17
6.449586091560488e-18
2.7199507943695262e-18
1.1589852422829374e-18
2.114397129097866e-18
8.683272157641299e-19
3.3598344907310956e-19
1.4015786315257934e-19
9.316244571421407e-20
8.745843098530347e-20
7.809459997412397e-20
8.34586369129333e-20
1.7076268518431805e-19
4.398670449403125e-19
1.048423962530364e-18
2.320075701009712e-18
4.966349740357424e-18
1.0471166885580863e-17
2.1757923942298856e-17
4.437255416766939e-17
8.854084112140425e-17
1.7256590513178226e-16
3.2809482068075234e-16
6.077432619244183e-16
1.0952988218603842e-15
1.9180361214214254e-15
3.2593836183788264e-15
5.368291988841779e-15
8.55971430873154e-15
1.3199958468893791e-14
1.9672783847237502e-14
2.8326279683047135e-14
3.940183566922649e-14
5.2940107871714744e-14
6.865464220965936e-14
8.579524230794847e-14
1.0311446977718391e-13
1.1913440977829189e-13
1.3279357777827372e-13
1.4409415943498077e-13
1.5384577232340346e-13
1.6182135709771585e-13
1.6423185724748761e-13
1.5356091390078942e-13
1.2389165786166145e-13
8.072839737167625e-14
4.7772769911586686e-14
6.079169937328098e-14
1.4694814300335227e-13
3.046654964741429e-13
5.115088126937276e-13
7.819961333346375e-13
1.2748465864758068e-12
2.4322218465621568e-12
5.152366472741635e-12
1.1066603901962663e-11
2.310045512206458e-11
4.6625848839120977e-11
9.166192355329982e-11
1.7681231202012977e-10
3.36040569484728e-10
6.301021118696917e-10
1.165569732203827e-09
2.1259572617349176e-09
3.821410005369351e-09
6.7655380136556865e-09
1.1789584306906705e-08
2.020400728639013e-08
3.401374145483957e-08
5.6183344877463676e-08
9.092955991850017e-08
1.4399067919413506e-07
2.227871942379672e-07
3.363545176091413e-07
4.949100316268178e-07
7.08931131142773e-07
9.876844823384637e-07
1.337265610088165e-06
1.758369720350915e-06
2.24418376711433e-06
2.7789114661160847e-06
3.337458017860377e-06
3.886668493674147e-06
4.388232388165327e-06
4.802988348038355e-06
5.0959844413683465e-06
5.241385389444413e-06
5.226262346799806e-06
5.052488698250864e-06
4.736357247963306e-06
4.306025096989548e-06
3.7973467425643725e-06
3.248952763249829e-06
2.6975037904896503e-06
2.1739011170740114e-06
1.7009321884425486e-06
1.2924707918009287e-06
9.540355452934118e-07
6.843034444704337e-07
4.771014097679513e-07
3.2344161367769996e-07
2.1328427903159057e-07
1.3685629514633521e-07
8.548535344931601e-08
5.2003569338367235e-08
3.082489174214821e-08
1.7812820396203116e-08
1.0041325106054252e-08
5.525562626720105e-09
2.9705212103217786e-09
1.5615518111889086e-09
8.035434565352129e-10
4.052570353758459e-10
2.0060852009985088e-10
9.763315293841207e-11
4.680748523238536e-11
2.2153972634332585e-11
1.0376317103288061e-11
4.821382711641077e-12
2.227830716441749e-12
1.025789663477038e-12
4.712405050437077e-13
2.1597455382862628e-13
9.854528382862127e-14
4.4544470480872034e-14
1.9767579965830333e-14
8.482962398334726e-15
3.43297678199105e-15
1.254040235827195e-15
3.8039520593965142e-16
8.202560697247079e-17
2.0490501918746762e-17
4.209325836803849e-17
8.052478703935282e-17
1.1048461546367711e-16
1.2534186071504703e-16
1.2631632144060876e-16
1.1728615703976485e-16
1.0239669490925081e-16
8.508033250516691e-17
6.778068639579907e-17
5.2009189224968804e-17
3.8534633547429966e-17
2.760021230153735e-17
1.9116647387813788e-17
1.2811557896264333e-17
8.332952236390542e-18
5.3136116581894505e-18
3.406482861952553e-18
2.3013124964997594e-18
1.7311335952280371e-18
1.4747538318814804e-18
1.3586630740989531e-18
1.2592311619251513e-18
1.1041505217664864e-18
8.711617558665562e-19
5.823370425066133e-19
2.934173670665692e-19
7.943138649348519e-20
1.9435112400785025e-20
1.8412476193389844e-19
6.299342405777751e-19
1.4019502780406837e-18
2.5456785449195653e-18
4.1245696807412405e-18
6.2364955335811475e-18
9.018446112608431e-18
1.2625476365243234e-17
1.7169158780401347e-17
2.2605516305433412e-17
2.8576845368162945e-17
3.424079470931682e-17
3.816755055107004e-17
3.8453034211818954e-17
3.3277837277247654e-17
2.2224212216459635e-17
8.720419597775759e-18
3.972385148893376e-18
3.2613257021727297e-17
1.3999326632851536e-16
4.00499418418682e-16
9.255350977649898e-16
1.868888161310881e-15
3.426386827283773e-15
5.826351547092927e-15
9.307882152937303e-15
1.4085952169799575e-14
2.0305864763779805e-14
2.799458166635905e-14
3.702171201566635e-14
4.70866563186129e-14
5.774815366168311e-14
6.850617601429149e-14
7.893305753815063e-14
8.88327213999958e-14
9.83885904298994e-14
1.0824928217724232e-13
1.1950415989186977e-13
1.3352443371243386e-13
1.5169314668012064e-13
1.751195828776497e-13
2.0452816639981142e-13
2.4062000513301213e-13
2.8530102844011527e-13
3.4420367750723607e-13
4.3086614478673555e-13
5.72970254991769e-13
8.222222221827994e-13
1.2751225515706344e-12
2.130541052162069e-12
3.860901326872725e-12
7.696886747203502e-12
1.6900347150716144e-11
3.9879662398784155e-11
9.737395317878749e-11
2.3822025350174133e-10
5.725279042765547e-10
1.3388908132714435e-09
3.0357698023364755e-09
6.669295078093405e-09
1.4203718787400783e-08
2.9349050953083967e-08
5.8882567958662e-08
1.1477014078179855e-07
2.1741240064984027e-07
4.0035773904520585e-07
7.167508379010796e-07
1.2475614353212052e-06
2.1112042865637693e-06
3.4734856070797154e-06
5.555924484728993e-06
8.639531927407733e-06
1.3060342886326397e-05
1.9192758235089653e-05
2.7417478209381557e-05
3.807282081058204e-05
5.13915783628045e-05
6.742990555638168e-05
8.599918583707597e-05
0.00010661511733938599
0.0001284790117153184
0.0001505034676500765
0.00017138794222204328
0.00018974020481844737
0.00020422923126254769
0.0002137464548401548
0.00021754800570121527
0.00021535225043760239
0.00020737461546770306
0.0001942936531898766
0.0001771556373997193
0.00015723633079246986
0.00013588527030136696
0.00011437869477160836
9.380250154042048e-05
7.4978159222363e-05
5.843481663012154e-05
4.4422318919134905e-05
3.2954116679495143e-05
2.3866744351110254e-05
1.6883305186413017e-05
1.1671257174608156e-05
7.888565209170194e-06
5.21593468297705e-06
3.3756915282175802e-06
2.1396456256271996e-06
1.329017590311145e-06
8.094684859383855e-07
4.837590998603424e-07
2.838616431116504e-07
1.6365494049735407e-07
9.276838765937582e-08
5.174028944133231e-08
2.8413796609225092e-08
1.5375062508211034e-08
8.20364631369148e-09
4.319280342180545e-09
2.2456193832393217e-09
1.1536601904377503e-09
5.860319902094673e-10
2.9453463158776756e-10
1.465467206927579e-10
7.222292182891589e-11
3.52734681428279e-11
1.70801018149979e-11
8.203087195647553e-12
3.908997539690588e-12
1.8488164686159337e-12
8.68132092005968e-13
4.048094166008777e-13
1.8749300610223243e-13
8.627311783319095e-14
3.944564833419631e-14
1.792361385237925e-14
8.095037700133012e-15
3.6344535715432784e-15
1.6223428386588256e-15
7.200700125466015e-16
3.1779978840189515e-16
1.39466647479096e-16
6.086718865543189e-17
2.6440604799919683e-17
1.1454245588487417e-17
4.950424138223598e-18
8.936896405702575e-18
3.852605594484339e-18
1.663618888638175e-18
7.662674240976756e-19
3.984580528336097e-19
2.0609418464680501e-19
7.271759966485108e-20
1.6513671573826987e-20
9.680263932385797e-20
3.622061647109079e-19
8.908633347559641e-19
1.9365156356062067e-18
4.168596783451166e-18
9.042165081798387e-18
1.9461686506630074e-17
4.106672353045687e-17
8.462547913271149e-17
1.7017424027500116e-16
3.3369895805198394e-16
6.372557159592593e-16
1.1832615065380492e-15
2.1329225410386816e-15
3.727077192458033e-15
6.305035463695141e-15
1.031379791242804e-14
1.6297643787989285e-14
2.4858184496207096e-14
3.657818019239917e-14
5.1907003724764795e-14
7.101035186693743e-14
9.3598577933742e-14
1.1878315659390302e-13
1.4506884655373565e-13
1.706061287474779e-13
1.9368434117416823e-13
2.1311562788466032e-13
2.2793063859558813e-13
2.3621675307053383e-13
2.341443874140871e-13
2.1727766253491223e-13
1.853245190339041e-13
1.4783268942767262e-13
1.2454111939196825e-13
1.3520205707621633e-13
1.8232069112623568e-13
2.4151140854954746e-13
2.770823023408463e-13
2.8796675204554735e-13
3.685404755918745e-13
7.608807284357808e-13
1.8982320467166205e-12
4.493181313017435e-12
9.788061622872951e-12
2.0141451583030857e-11
4.018623436323637e-11
7.891727442507695e-11
1.5333579265796997e-10
2.9478451982894413e-10
5.599382663033259e-10
1.0496506724630484e-09
1.940566380532927e-09
3.536567547609568e-09
6.349457026644824e-09
1.1220000877800879e-08
1.9490010407770433e-08
3.323114463548771e-08
5.552366033526194e-08
9.075604228571054e-08
1.448842104892625e-07
2.2555122318492396e-07
3.419357152053416e-07
5.041864520320769e-07
7.223306510679559e-07
1.0046297189906145e-06
1.3554980091899178e-06
1.773275759255738e-06
2.248309913700263e-06
2.7618842293980513e-06
3.286495743133716e-06
3.7877711344763807e-06
4.227976689027358e-06
4.570676691132767e-06
4.785750716675225e-06
4.8538038158674e-06
4.769066081256905e-06
4.54017841769977e-06
4.188721859504814e-06
3.745839308472894e-06
3.2476845970924856e-06
2.730616368646965e-06
2.2270034296944146e-06
1.762264927813384e-06
1.3534230340186124e-06
1.0091017284518293e-06
7.306467483726387e-07
5.139119037390434e-07
3.5125489241476454e-07
2.3337779761782034e-07
1.5078556420796588e-07
9.477489676991219e-08
5.797539318148015e-08
3.4531153057702736e-08
2.003626206564649e-08
1.1332052173176293e-08
6.251274942654287e-09
3.366059098874639e-09
1.770708704819614e-09
9.109441387665558e-10
4.5886657681012795e-10
2.2665411377899078e-10
1.099703064297333e-10
5.2518097960109355e-11
2.4745324111964603e-11
1.1534229559517955e-11
5.33395468602322e-12
2.454383330614996e-12
1.1267159862402885e-12
5.170125347845673e-13
2.372940300711566e-13
1.0880165612389233e-13
4.964909031022445e-14
2.239223407256675e-14
9.87432696228391e-15
4.193369311600747e-15
1.6838487380781047e-15
6.331865546167213e-16
2.376928980060971e-16
1.2114955153142035e-16
1.1025717436262803e-16