# vtk DataFile Version 4.1 
COMMENT
ASCII
DATASET STRUCTURED_POINTS 
DIMENSIONS 300 300 1 
ORIGIN 0 0 0
SPACING 0.020943951023931952 0.020943951023931952 0 
POINT_DATA 90000
SCALARS U double 1
LOOKUP_TABLE default
8.018234708390063e-19
8.084322478768479e-19
7.672455262932455e-19
1.6627861811730598e-18
5.0556958255715244e-18
1.3226836139514948e-17
3.142529443208785e-17
7.358077187278463e-17
1.7340485403557493e-16
4.075343853941536e-16
9.48924974114281e-16
2.190709774292738e-15
5.024912419740318e-15
1.145594997904797e-14
2.593411268936175e-14
5.822080443101738e-14
1.2946494862447903e-13
2.849097269052982e-13
6.200711694203691e-13
1.3337707578753725e-12
2.833442092779985e-12
5.939287742895718e-12
1.2268962462091993e-11
2.4938419035158483e-11
4.9788876611762063e-11
9.743513295759008e-11
1.8649415450911452e-10
3.4832654807281704e-10
6.334029295543438e-10
1.1188962152308565e-09
1.9163431508844556e-09
3.1776495688463862e-09
5.098486611050665e-09
7.922276858527636e-09
1.1957947968820914e-08
1.764156728619029e-08
2.5692469302868856e-08
3.742702735262393e-08
5.527736421012162e-08
8.349558448527029e-08
1.2890016747224971e-07
2.0137575232669737e-07
3.137679117968172e-07
4.809676887908935e-07
7.184905067326696e-07
1.0417321409179758e-06
1.4681120134860176e-06
2.0250147244394887e-06
2.7662028090025506e-06
3.797721722808487e-06
5.311228551973892e-06
7.618762753727349e-06
1.1179399003593064e-05
1.6606302797873553e-05
2.464343618571556e-05
3.6104818173913146e-05
5.177536654129234e-05
7.227997125977202e-05
9.793543914876994e-05
0.00012860714172899685
0.00016359728667838155
0.00020159309834800676
0.00024069904915159459
0.0002785663774740199
0.0003126158145264248
0.0003403285470873663
0.0003595611796694895
0.000368829050316578
0.000367503592625103
0.0003558848049436766
0.0003351359037736327
0.0003070967159609112
0.0002740168421123135
0.000238262467067673
0.00020204938469114994
0.00016724146979713633
0.00013523393257218718
0.0001069206586432029
8.272986059262383e-05
6.270456309491632e-05
4.660380324027953e-05
3.4004718105881726e-05
2.4392210828753357e-05
1.7229376225549948e-05
1.2006999323057891e-05
8.273797524522153e-06
5.65084437915653e-06
3.834221885690097e-06
2.5898285869881583e-06
1.7437443486171716e-06
1.1708313648320707e-06
7.834736497118899e-07
5.216231901033581e-07
3.447019671085107e-07
2.2544839038259282e-07
1.455054634534689e-07
9.24080931842564e-08
5.76008689954773e-08
3.516140252910032e-08
2.097867476183268e-08
1.2212681670324114e-08
6.925440473196338e-09
3.818882692582194e-09
2.043654919503147e-09
1.0586675446381878e-09
5.290608389137203e-10
2.5383184736526236e-10
1.1609280781760784e-10
5.0072320549306575e-11
2.0017548281195935e-11
7.199025335141791e-12
2.1984449195730712e-12
4.988040313619721e-13
5.637040009637339e-14
1.5697861924899087e-14
5.840728062195327e-14
8.937168540938831e-14
9.478951625886817e-14
8.345561956834725e-14
6.576503501659185e-14
4.8308509863365935e-14
3.396291010740118e-14
2.329279882734179e-14
1.5799716019945897e-14
1.069216954702996e-14
7.247888935592829e-15
4.92545677345678e-15
3.3564668927082727e-15
2.299320465927288e-15
1.5938573187211538e-15
1.1296418190529133e-15
8.276925993072566e-16
6.310818642726164e-16
4.999055635995858e-16
4.077624259702926e-16
3.385219911935639e-16
2.832146926192451e-16
2.373048147502974e-16
1.9861305120068348e-16
1.6597844914975765e-16
1.3856511714433202e-16
1.1561344421760304e-16
9.642207781032232e-17
8.039746075514962e-17
6.708231734286347e-17
5.614047179843323e-17
4.7315533029116213e-17
4.0392957560069464e-17
3.5186502952184845e-17
3.155291118143494e-17
2.9423817940015885e-17
2.8838454984046334e-17
2.9966598040022276e-17
3.3125424588681816e-17
3.881005169052218e-17
4.7767710168162247e-17
6.114270670142905e-17
8.069894707015064e-17
1.0908796773301178e-16
1.500768451892802e-16
2.0859107932203162e-16
2.903777913660622e-16
4.01076171552078e-16
5.445230052409296e-16
7.202534850357899e-16
9.2041493328017e-16
1.1267259840115453e-15
1.3087174021709734e-15
1.4253159991885644e-15
1.4329195298805506e-15
1.304506141921695e-15
1.066076901271632e-15
8.588768543523989e-16
1.0383681594354685e-15
2.3237715314290618e-15
6.0150713208621105e-15
1.4297765299378133e-14
3.0659900048402313e-14
6.045274470983834e-14
1.1163958779705993e-13
1.9580400967000349e-13
3.2954333528667595e-13
5.364800690338817e-13
8.503316133795578e-13
1.3198803911846781e-12
2.017476124094571e-12
3.054292827543095e-12
4.608859818408009e-12
6.982390581862226e-12
1.0709561227220373e-11
1.6786222491600696e-11
2.714628992468394e-11
4.566991703312621e-11
8.031432654160162e-11
1.4757671129296097e-10
2.8168899856006067e-10
5.531459970785099e-10
1.1050660535902653e-09
2.2224628088158547e-09
4.460046366473703e-09
8.870078806991451e-09
1.7394162451035534e-08
3.351148207453684e-08
6.326805619433043e-08
1.1683926031833004e-07
2.1078644535525217e-07
3.7113442072357923e-07
6.372886681680502e-07
1.0665959149817314e-06
1.7390056150253177e-06
2.7608188025824966e-06
4.265973353832785e-06
6.4128418220481345e-06
9.374315282941263e-06
1.3319265248367184e-05
1.8384543291725012e-05
2.4638595137971528e-05
3.204039565778017e-05
4.04003078878881e-05
4.935189763934074e-05
5.834480978776598e-05
6.666774132076083e-05
7.350691346009242e-05
7.803942753770869e-05
7.955332247996167e-05
7.757841620881381e-05
7.200578741329833e-05
6.317072182435384e-05
5.187551832665628e-05
3.9335578532105145e-05
2.7044637253891915e-05
1.6571459177739862e-05
9.317833881486915e-06
6.281786956577355e-06
7.875615040579342e-06
1.3841898781763461e-05
2.3291499423092313e-05
3.4859552976980035e-05
4.6946388702820366e-05
5.7989307469875566e-05
6.670532376386653e-05
7.225617803675867e-05
7.431090021138471e-05
7.300931277048732e-05
6.885276144472225e-05
6.255976420029214e-05
5.492298486511745e-05
4.669343199743367e-05
3.85038249529996e-05
3.083091829892084e-05
2.398912145578448e-05
1.814520455104266e-05
1.3344711749454255e-05
9.54296272691505e-06
6.635811326256574e-06
4.4870819471726825e-06
2.9508520586641136e-06
1.8877236088977366e-06
1.175072645645735e-06
7.11976414876512e-07
4.200024119670359e-07
2.412399944255687e-07
1.3487611106465715e-07
7.334670522544702e-08
3.87466379317957e-08
1.98509739280691e-08
9.848137867955485e-09
4.7289485002655356e-09
2.2035039350923724e-09
1.0047457716074347e-09
4.5630879247395994e-10
2.121236982664567e-10
1.0380359432223882e-10
5.4017847883809e-11
2.93508252420715e-11
1.6067845508056403e-11
8.557071026095194e-12
4.318082349419848e-12
2.026220764107797e-12
8.706007824044434e-13
3.3722005190067115e-13
1.1584841835509845e-13
3.5193967103738085e-14
1.0383457063649345e-14
4.3147538746452235e-15
3.093172863774549e-15
2.5622167695092203e-15
1.9460222099419308e-15
1.318560042331763e-15
8.099667022384241e-16
4.594865486514666e-16
2.4429953482189486e-16
1.2319084813136984e-16
5.968857516695378e-17
2.8290036312345384e-17
1.3288574898349392e-17
6.041584813208425e-18
2.475621737230822e-18
9.524427507509046e-19
6.510424091200646e-19
1.0137205973589073e-18
4.3205929207662533e-19
3.216429594925169e-20
3.456385721085167e-19
1.7068558781104789e-18
4.27897141667898e-18
9.416530087848895e-18
2.2141100272651835e-17
5.463775494150078e-17
1.3372093641169293e-16
3.2097931178863636e-16
7.631954458304123e-16
1.8093270177463793e-15
4.2758511124204714e-15
1.004580540940399e-14
2.3407833427413993e-14
5.400525325111015e-14
1.232351368455784e-13
2.77934628495645e-13
6.191820717825954e-13
1.361716957412431e-12
2.953639842245841e-12
6.310928895500038e-12
1.3262492671752906e-11
2.7364540350669543e-11
5.532959870200738e-11
1.0941548505336856e-10
2.1120065282385694e-10
3.971734009364519e-10
7.264090912611037e-10
1.2902836412159568e-09
2.2238669433287155e-09
3.7189925649184457e-09
6.041257249477941e-09
9.558990413976315e-09
1.4802417125705742e-08
2.2583580564966867e-08
3.421382573548319e-08
5.18403799186685e-08
7.88691053826686e-08
1.2034122053959541e-07
1.830163948980165e-07
2.748646476643765e-07
4.0381261076784495e-07
5.760478359856038e-07
7.949778385002897e-07
1.0628855913478275e-06
1.3880018936208526e-06
1.7995767705311565e-06
2.3721373046395085e-06
3.2574288618665676e-06
4.719080246986973e-06
7.161815466598628e-06
1.114517294460135e-05
1.7371959468553856e-05
2.664419850838535e-05
3.978369432770316e-05
5.7519870337960314e-05
8.035374622462705e-05
0.00010841347700424855
0.00014132326784554127
0.0001781124112331384
0.00021719240249081537
0.0002564249374367585
0.0002932904627948904
0.00032514679100085765
0.0003495443824195107
0.00036454602908665473
0.00036899080387673956
0.0003626494439219619
0.0003462400742905695
0.00032130351969236764
0.0002899675090336713
0.0002546502307666113
0.00021776071907272294
0.0001814461665926679
0.00014741862454912354
0.00011687214051144143
9.048240991411341e-05
6.846849966368887e-05
5.069129068172703e-05
3.676476155275681e-05
2.6161648492507312e-05
1.830183684316709e-05
1.261819074286704e-05
8.59941586684064e-06
5.812716090428376e-06
3.910632377160527e-06
2.6269033365825495e-06
1.7658407897151899e-06
1.1888999873194881e-06
8.011093412052024e-07
5.390130572617799e-07
3.6091368689196894e-07
2.395581555479036e-07
1.5700839580491302e-07
1.0124781867198503e-07
6.404187917911454e-08
3.9632271192985695e-08
2.394548575448637e-08
1.4099589787906094e-08
8.077569175808166e-09
4.4948465166861815e-09
2.424773219055068e-09
1.2650047384046164e-09
6.361364276695287e-10
3.0692158576760933e-10
1.411127425928524e-10
6.11880706738358e-11
2.4611861139795153e-11
8.92739767910679e-12
2.768742771478089e-12
6.545891272431356e-13
9.211951996457477e-14
3.1921956599530816e-14
8.013136187560454e-14
1.1695436253624637e-13
1.2340449925945329e-13
1.0921573595568612e-13
8.679287960863809e-14
6.427182196727303e-14
4.53897435958485e-14
3.1053985383894464e-14
2.0803323468167527e-14
1.3736494309784655e-14
8.970791232113729e-15
5.804031094204666e-15
3.728773088174994e-15
2.392833584798638e-15
1.5532100289781447e-15
1.040555788168299e-15
7.361623831681154e-16
5.578974343698492e-16
4.510622540264301e-16
3.814975423932748e-16
3.2975922855487644e-16
2.8614460172785157e-16
2.4671610048806603e-16
2.1044764351559526e-16
1.774426208019183e-16
1.48010692304191e-16
1.2231690033518414e-16
1.0033396979677754e-16
8.190251513794825e-17
6.679258977650303e-17
5.4732867710527315e-17
4.5416716740183357e-17
3.850794558326254e-17
3.3662257479173864e-17
3.056549510283084e-17
2.8977241884107364e-17
2.876488911914294e-17
2.992055514574518e-17
3.2568226086607454e-17
3.698471201888285e-17
4.366750735209991e-17
5.347813889048074e-17
6.786655585359891e-17
8.914037779564258e-17
1.2068756490293544e-16
1.670033999211111e-16
2.3332946586170406e-16
3.247053174777848e-16
4.442872979629245e-16
5.909276819961406e-16
7.562519900065912e-16
9.218395715138042e-16
1.0576177104098358e-15
1.123244116019303e-15
1.0751144161153387e-15
8.827502847811511e-16
5.597774294475643e-16
2.165627984949776e-16
1.438773299574351e-16
9.396432556087003e-16
3.693821609540733e-15
1.0249792817256597e-14
2.356461303598908e-14
4.819682179492628e-14
9.096278692362888e-14
1.618287205101107e-13
2.7516046623186413e-13
4.5156464993608026e-13
7.207739702556808e-13
1.1264528836692993e-12
1.7346166138710054e-12
2.6489502911778624e-12
4.03949312029288e-12
6.197646584731798e-12
9.64401068713977e-12
1.5344117384051623e-11
2.514732326667801e-11
4.268942293786589e-11
7.525479706273996e-11
1.3759921457923154e-10
2.5970157003344085e-10
5.021958853452374e-10
9.863910077674169e-10
1.9511310989430278e-09
3.8573767626007785e-09
7.574568242302888e-09
1.4701714061097545e-08
2.8101073845957988e-08
5.2751627798002066e-08
9.705785803412515e-08
1.747654395045489e-07
3.0762023999409175e-07
5.288335264651707e-07
8.872526498219468e-07
1.4518550112677374e-06
2.3157759415701017e-06
3.598581579621437e-06
5.445001757934832e-06
8.01801446917515e-06
1.1484251955292933e-05
1.599041923929154e-05
2.1630944337876164e-05
2.8409397981857988e-05
3.619903557407121e-05
4.471052335609221e-05
5.347667580511606e-05
6.186396387940367e-05
6.911798445591269e-05
7.44448343163447e-05
7.712291440674332e-05
7.663132560357426e-05
7.277350235382776e-05
6.577013549743447e-05
5.629568973596015e-05
4.543921512822696e-05
3.458279426622799e-05
2.520829962888592e-05
1.8661730139175614e-05
1.591932962694293e-05
1.7405718912658954e-05
2.2907677127097634e-05
3.160770182160647e-05
4.223324331492896e-05
5.3288512595099846e-05
6.331521353754965e-05
7.112335492136238e-05
7.594508916080976e-05
7.74888038165474e-05
7.58986516932426e-05
7.164693913692419e-05
6.539708762908718e-05
5.787229288721221e-05
4.975337116782293e-05
4.161477010369911e-05
3.3895839586838996e-05
2.689805553582194e-05
2.0797834502961827e-05
1.5666825652196798e-05
1.1494710351198424e-05
8.21195727685419e-06
5.7111896872796395e-06
3.866161794158918e-06
2.547411539558441e-06
1.6338782230827539e-06
1.0202408353714333e-06
6.203047639958501e-07
3.672355243452967e-07
2.116739645984175e-07
1.1874969469979845e-07
6.480910887433887e-08
3.4395696152211445e-08
1.775376388740563e-08
8.925190563777773e-09
4.387071228054134e-09
2.1246561000279066e-09
1.0261795548672258e-09
5.017629625794893e-10
2.5152782725978453e-10
1.2963417087343225e-10
6.796853659481965e-11
3.5519286249211694e-11
1.807133366086465e-11
8.756050688004289e-12
3.958879317186146e-12
1.6344691979943313e-12
5.986485866638388e-13
1.854090739257403e-13
4.417332148016505e-14
6.7665856939433076e-15
1.6410230116877916e-15
3.0058435568606607e-15
3.865504352432778e-15
3.507703721156959e-15
2.593563780275347e-15
1.6751683983635278e-15
9.81015975894215e-16
5.32883604236391e-16
2.7288503005569446e-16
1.3360930395498207e-16
6.338263483928661e-17
2.939608584183989e-17
1.3339266937573724e-17
5.974241720424321e-18
2.8402320353985075e-18
1.626005577237262e-18
1.6980636393299899e-18
6.768475114260319e-19
2.2021262604857486e-19
4.012756309573329e-19
9.423232911224623e-19
1.4522348268026575e-18
2.4209057920356607e-18
6.0869845339416286e-18
1.682201369460098e-17
4.302637441674617e-17
1.0497931860838028e-16
2.553944821866098e-16
6.265451874253601e-16
1.539630639278824e-15
3.763144740289107e-15
9.11576126381419e-15
2.1843973498601096e-14
5.1721773340521846e-14
1.2094231630049332e-13
2.7922234047991935e-13
6.362673587297952e-13
1.429886169604075e-12
3.1650092752169463e-12
6.888883518236656e-12
1.4717738523035838e-11
3.0807421909443174e-11
6.306815387434726e-11
1.2605372952299174e-10
2.4558097754221925e-10
4.657100959270416e-10
8.587050489518102e-10
1.538554082631351e-09
2.678860798722567e-09
4.5370851141182684e-09
7.490159799424172e-09
1.2091925278233228e-08
1.9169019497669567e-08
2.997291944979938e-08
4.639044357791647e-08
7.11698732368426e-08
1.0804084682568766e-07
1.6151695332882504e-07
2.3613846946063007e-07
3.3504760431610705e-07
4.5819643605901824e-07
6.011893287191561e-07
7.566014880967639e-07
9.202291278792865e-07
1.1046311544144828e-06
1.3611339821428799e-06
1.8091671508584842e-06
2.6688590607495023e-06
4.290126266933891e-06
7.169949210988381e-06
1.1949661624032877e-05
1.9385795324101944e-05
3.029077974991409e-05
4.544310714041797e-05
6.547045932606643e-05
9.071429206800077e-05
0.00012109093760011133
0.00015597180944296388
0.00019411146087947855
0.00023365336926015683
0.000272235845312576
0.000307203145206147
0.00033590236962011296
0.00035602167629038116
0.000365908211489374
0.00036480199821951675
0.0003529371639898053
0.00033149067870200956
0.00030239269431342274
0.0002680415283461108
0.0002309824010320426
0.00019360913979981397
0.00015793443291321288
0.00012545279386145963
9.709819372621232e-05
7.328092591899943e-05
5.3978510705303545e-05
3.8853334682798804e-05
2.7373339944676145e-05
1.891879241998935e-05
1.2865580673408201e-05
8.641990661640663e-06
5.760660233286908e-06
3.8302761735243145e-06
2.5527659665975728e-06
1.7116669835450126e-06
1.1564802776847713e-06
7.865494856018533e-07
5.366808769968307e-07
3.655685729563224e-07
2.4723242539521343e-07
1.6514371508951093e-07
1.0846581927850581e-07
6.97964906822725e-08
4.388065250994397e-08
2.6895553281998683e-08
1.6044150256399195e-08
9.301331376709874e-09
5.232919737415448e-09
2.852451716187387e-09
1.5034910451193952e-09
7.642474608926883e-10
3.7326012011828924e-10
1.7424335717397162e-10
7.716040402474314e-11
3.2062371776802976e-11
1.231007103028297e-11
4.284590035799284e-12
1.3447669896452376e-12
4.2729227776667695e-13
2.151036391764755e-13
1.949693152870861e-13
1.9677308570037532e-13
1.816329233252014e-13
1.519626909237565e-13
1.1763713759659462e-13
8.588685355744471e-14
5.999941318469821e-14
4.0520280990091447e-14
2.66352573566385e-14
1.7105909799670064e-14
1.0748506613306427e-14
6.609139500283736e-15
3.981520461251996e-15
2.3641843653832465e-15
1.407376809918973e-15
8.691480537988377e-16
5.841001603370509e-16
4.420486791541162e-16
3.7292181671388356e-16
3.352950830031696e-16
3.072746301936863e-16
2.7930119448311886e-16
2.487750055646607e-16
2.1638693333579846e-16
1.839031202945349e-16
1.530397130080156e-16
1.2504105000362276e-16
1.0063208286903976e-16
8.011610862059926e-17
6.34921242538427e-17
5.054569846211178e-17
4.0913426612602184e-17
3.4137086956948707e-17
2.971981188142509e-17
2.7184802338149993e-17
2.6127277389803776e-17
2.6248551585936512e-17
2.7368901651831135e-17
2.9430384741538516e-17
3.2515819884628215e-17
3.6917977944898795e-17
4.328654359675274e-17
5.2855466676220087e-17
6.771058382647097e-17
9.100347710739697e-17
1.26965135360942e-16
1.8053986249068407e-16
2.5646660547462613e-16
3.5770142071387313e-16
4.832167051267578e-16
6.254385796546105e-16
7.678956551212002e-16
8.840524291750554e-16
9.388022439377925e-16
8.947365133891861e-16
7.261605835363458e-16
4.449910816038536e-16
1.4424337495886365e-16
6.68516865282175e-17
7.100150386338772e-16
2.9779880769799273e-15
8.399105893926334e-15
1.942603890076767e-14
3.984296942518053e-14
7.531279050627711e-14
1.3411868796049382e-13
2.2820168311725147e-13
3.746952338605762e-13
5.983581431842138e-13
9.356972801208387e-13
1.442322462703094e-12
2.206524852180663e-12
3.374910681362247e-12
5.201614053022231e-12
8.144255535611122e-12
1.3053932982229033e-11
2.1556568962252128e-11
3.682572732786741e-11
6.515412920357454e-11
1.191376222912367e-10
2.2405876961720697e-10
4.304784448434949e-10
8.385591338002729e-10
1.6439185985171948e-09
3.2217638678979355e-09
6.276811530926614e-09
1.2102204740524474e-08
2.3011971309671198e-08
4.3037843601526824e-08
7.900898497791885e-08
1.421541248768737e-07
2.503648889031119e-07
4.3121406225217296e-07
7.257041938183312e-07
1.1925011039423245e-06
1.912066228605261e-06
2.9896544396000038e-06
4.555654775784798e-06
6.7613528697611914e-06
9.76808490507642e-06
1.3728168772134526e-05
1.8757142347765726e-05
2.4898786114362348e-05
3.20870002113493e-05
4.011138762988485e-05
4.859562335135918e-05
5.699846187916573e-05
6.464572468598997e-05
7.079735358521413e-05
7.47467931647542e-05
7.594154777341606e-05
7.41054843402937e-05
6.933757330472745e-05
6.216057254917889e-05
5.349836603826105e-05
4.4572673303146546e-05
3.6727164622598196e-05
3.1206081267034835e-05
2.8930098327096583e-05
3.0318909933405015e-05
3.5204026173593604e-05
4.2856254709252175e-05
5.21245178107284e-05
6.165401523579371e-05
7.013148432424313e-05
7.650031792240841e-05
8.010020503883787e-05
8.07102472182816e-05
7.85023105281885e-05
7.39331813878843e-05
6.761359427691325e-05
6.0188474147010405e-05
5.2249868844596625e-05
4.428860894831294e-05
3.6678631882906395e-05
2.968217004499425e-05
2.3464328613122188e-05
1.8109459112471757e-05
1.3636206503347079e-05
1.0011147910182347e-05
7.161972074100816e-06
4.9907167484088955e-06
3.386656402112405e-06
2.23779368170292e-06
1.4398662115582183e-06
9.022298885193841e-07
5.506170439336213e-07
3.2730565590615913e-07
1.895205409281461e-07
1.0690937816523367e-07
5.877686587075146e-08
3.152600614887738e-08
1.653204934258219e-08
8.508173048813271e-09
4.322849742800652e-09
2.1853397690689952e-09
1.1082777667510742e-09
5.670762626021314e-10
2.9274870491421725e-10
1.5137701846798642e-10
7.736946641961317e-11
3.844411136889973e-11
1.8244189763534206e-11
8.114454628003563e-12
3.3077436640619108e-12
1.1971048936080957e-12
3.6375491897103267e-13
8.19350556728191e-14
9.226622644686903e-15
9.956521081765767e-16
5.1866302013331556e-15
7.736237578905777e-15
7.357647105461873e-15
5.573895721833653e-15
3.656390198361508e-15
2.1632643815867065e-15
1.1820404349744905e-15
6.063021359371335e-16
2.9583786039653965e-16
1.3903479826085036e-16
6.372609802942423e-17
2.891497510226968e-17
1.3310734090819394e-17
6.453944092894501e-18
3.345469254587319e-18
3.431713844553598e-18
1.7776400682165617e-18
1.0513967297768087e-18
9.016856801132158e-19
8.097004661796954e-19
4.521332490209494e-19
3.1260480754952654e-19
1.5912419994942411e-18
5.5229530106282594e-18
1.389283083676197e-17
3.2787332597583565e-17
8.105022220941106e-17
2.0781145830120402e-16
5.348638179129664e-16
1.3643317767149604e-15
3.4417449082074707e-15
8.575883814301114e-15
2.108068203353859e-14
5.111450680229319e-14
1.2233084672812917e-13
2.890613813513121e-13
6.739329052966563e-13
1.5479387647686433e-12
3.495915148966388e-12
7.747883639334174e-12
1.6820008162707756e-11
3.5708143239359644e-11
7.401927324239882e-11
1.4960909772436695e-10
2.944997778622915e-10
5.640526692676694e-10
1.0505629344002532e-09
1.9027199710285597e-09
3.353011515334821e-09
5.756543071758166e-09
9.646993387669179e-09
1.58172258554083e-08
2.5429131726677362e-08
4.0141457926028066e-08
6.22061752973052e-08
9.44212513447967e-08
1.3976074704164727e-07
2.0048868359611408e-07
2.766920500414212e-07
3.645300618714834e-07
4.551075400988102e-07
5.356037477370607e-07
5.948072829433124e-07
6.351070469722831e-07
6.91952990516009e-07
8.598444514898587e-07
1.3214916868096533e-06
2.37470748070957e-06
4.450548649289729e-06
8.116504331959063e-06
1.4059747288832142e-05
2.304689252092779e-05
3.585787893886638e-05
5.3192901072399395e-05
7.555408412981572e-05
0.00010310930177274104
0.0001355545213412036
0.00017200138203191543
0.00021092405928432162
0.00025019860765587216
0.00028725531219495195
0.00031934066568873514
0.000343856093637332
0.00035871482763075293
0.0003626459334227065
0.00035538112558161286
0.00033768481580737
0.0003112235644050372
0.0002783068064210353
0.00024155603933717434
0.00020356845964155312
0.00016663306601847683
0.0001325373187371386
0.00010247792514188518
7.706724693638972e-05
5.641183058216006e-05
4.023317149562099e-05
2.800195507756066e-05
1.9063133105617654e-05
1.2737464273785917e-05
8.393261633256691e-06
5.48859571266809e-06
3.5884898447411767e-06
2.363738858308021e-06
1.5782932248911597e-06
1.071253208698566e-06
7.379926578244279e-07
5.132648108032075e-07
3.5767011164781374e-07
2.4776799317466743e-07
1.6943432131067695e-07
1.137519001545429e-07
7.467232048235967e-08
4.779357699865097e-08
2.976691164386697e-08
1.801547231638839e-08
1.0583644891534907e-08
6.029457967828041e-09
3.327499892348022e-09
1.7766187254094114e-09
9.161626095522052e-10
4.552763274510474e-10
2.1738108718740174e-10
9.936409858757391e-11
4.3313015959252986e-11
1.7967700322087407e-11
7.1394369265590525e-12
2.8108791546573117e-12
1.2059247865548758e-12
6.488422976435457e-13
4.5020150734022405e-13
3.5488974409009e-13
2.8346509403004017e-13
2.1899532403865624e-13
1.6198566702112315e-13
1.1494947818604787e-13
7.863033930319745e-14
5.2066345959690635e-14
3.345837688937494e-14
2.087433292065933e-14
1.2622085505876742e-14
7.371955652478968e-15
4.143637447891125e-15
2.241308347365908e-15
1.1824602957623519e-15
6.38603566932979e-16
3.910865970515503e-16
2.9932330334035843e-16
2.7768359431695364e-16
2.782142164644777e-16
2.775478026596505e-16
2.67161836878206e-16
2.4648848625965326e-16
2.184182834261806e-16
1.866823465485661e-16
1.545683032239054e-16
1.2446985035295844e-16
9.787584917056881e-17
7.553478138109471e-17
5.764909538065874e-17
4.4040831832852796e-17
3.428005652516481e-17
2.778711585733254e-17
2.391960478155485e-17
2.2046619922745906e-17
2.1605501723969456e-17
2.213542599715805e-17
2.3289402903313148e-17
2.4839018547116153e-17
2.6698961627089182e-17
2.9003778633101285e-17
3.2260817810314714e-17
3.7577461475297436e-17
4.691911284198564e-17
6.33047536646016e-17
9.080283639245186e-17
1.34169443596815e-16
1.9799133345030217e-16
2.852733422899783e-16
3.9554956818615133e-16
5.227982077332614e-16
6.536914716543959e-16
7.670074084160213e-16
8.353789810530385e-16
8.309986469232006e-16
7.375157168288237e-16
5.712724406377462e-16
4.163351543447775e-16
4.795434855283109e-16
1.1739597435227652e-15
3.2414442046459294e-15
7.927330418236241e-15
1.7222233564693158e-14
3.418853498933322e-14
6.339440932170783e-14
1.1149212502438151e-13
1.880115589907297e-13
3.065169124351168e-13
4.864360026301987e-13
7.561938524513081e-13
1.158910455604632e-12
1.7631405492331252e-12
2.6835182403382506e-12
4.120924058946808e-12
6.441441415807996e-12
1.0333168607248655e-11
1.712060520218088e-11
2.939898933689121e-11
5.231595555048937e-11
9.614916630316298e-11
1.8143625252334764e-10
3.4902651905002953e-10
6.793938937804817e-10
1.328911241560522e-09
2.5962946165123053e-09
5.04106120166077e-09
9.688697751786988e-09
1.837519039390635e-08
3.430662994419479e-08
6.293577111684633e-08
1.132810179255107e-07
1.9982307429280392e-07
3.4509207662310744e-07
5.829781104433065e-07
9.626320139029973e-07
1.552548394571567e-06
2.444036803593866e-06
3.752828531873169e-06
5.617133169522326e-06
8.19021538891948e-06
1.1625724205621412e-05
1.6054792787746793e-05
2.1555475408047388e-05
2.8117356463470688e-05
3.560684173224481e-05
4.3741110343270084e-05
5.208011994216305e-05
6.00455205847575e-05
6.697217920943825e-05
7.219212345796712e-05
7.514274975381703e-05
7.548264646555091e-05
7.319160172021251e-05
6.862878830895825e-05
6.252678293976874e-05
5.590974983598302e-05
4.9940595618020975e-05
4.5720749709223646e-05
4.40822586751408e-05
4.541951423577506e-05
4.960313751662032e-05
5.600079328878822e-05
6.36029833441547e-05
7.122394876858494e-05
7.772779818135906e-05
8.222482341541377e-05
8.419449403054006e-05
8.351555308331325e-05
8.041120817852918e-05
7.5339008829498e-05
6.886407671797295e-05
6.154980299293288e-05
5.388607671430135e-05
4.625847463845546e-05
3.8949029643138736e-05
3.2153618239153463e-05
2.6002417554322156e-05
2.0575429158361655e-05
1.5911207766438928e-05
1.2011093509050194e-05
8.842559700951972e-06
6.344356273999486e-06
4.434240458753953e-06
3.018422933080819e-06
2.0010479415351933e-06
1.2921056292778517e-06
8.128108891405694e-07
4.982561315378505e-07
2.977482768590118e-07
1.7354623131044033e-07
9.874707719148929e-08
5.4926777839161256e-08
2.993313373361047e-08
1.6033724324159917e-08
8.47801803768642e-09
4.447014633863899e-09
2.3243774787561877e-09
1.2136139058912071e-09
6.322815161537448e-10
3.269253108611543e-10
1.662157017992023e-10
8.210926042832478e-11
3.8877231265420755e-11
1.73785599315685e-11
7.205761099939649e-12
2.709623421869799e-12
8.963141130019915e-13
2.5210683647289973e-13
6.337215852213348e-14
2.4660431090944843e-14
2.2059822993910325e-14
2.1776902820330156e-14
1.8270346319871083e-14
1.318842318507959e-14
8.464560460151405e-15
4.94761230003148e-15
2.6774180500634575e-15
1.357859595901157e-15
6.521774849200387e-16
2.999602020956125e-16
1.3403051107234405e-16
5.943455441075722e-17
2.6959867331298038e-17
1.2907348168504005e-17
6.571675595839217e-18
6.8857872607005766e-18
4.195145487553313e-18
2.7389796050583624e-18
1.8808865668382256e-18
1.1105835136290078e-18
3.3900467598047837e-19
7.117654523072907e-20
8.069439656640286e-19
2.3522687083571826e-18
4.466990900266955e-18
9.156584096517356e-18
2.3764330686660003e-17
6.615957211008169e-17
1.8006223656726445e-16
4.795675970527752e-16
1.2616066174947462e-15
3.2736836236290873e-15
8.354381349825743e-15
2.0987114630519554e-14
5.204602293734627e-14
1.2761756202105664e-13
3.0917290792784095e-13
7.383655157647485e-13
1.7337165873486765e-12
3.993234714840509e-12
9.00569650011337e-12
1.985664033654755e-11
4.274833915460301e-11
8.975005782051084e-11
1.835618265969876e-10
3.6540382906869503e-10
7.075149749617781e-10
1.3321475741416786e-09
2.439403583060102e-09
4.346786995086178e-09
7.543679511955395e-09
1.2762838575067975e-08
2.106521273567468e-08
3.391808787501869e-08
5.3213489906032447e-08
8.112383781349069e-08
1.1964323242644875e-07
1.6966321255025047e-07
2.2955646006390336e-07
2.935629274223194e-07
3.507980114802891e-07
3.8630774784336884e-07
3.8600472459324676e-07
3.47178894158079e-07
2.9534504828664584e-07
3.065316062086115e-07
5.322003768549525e-07
1.2225244592149552e-06
2.743313948906772e-06
5.582492788588412e-06
1.0343041414061766e-05
1.771974641473359e-05
2.8456383236579668e-05
4.327870997464743e-05
6.279880290185129e-05
8.739028572019428e-05
0.00011704332235945258
0.00015122164149074268
0.00018875688887731924
0.00022782172957144477
0.0002660165023141253
0.0003005829504870813
0.00032872665602620216
0.0003479967245208868
0.00035664858115852836
0.0003539124478254014
0.00034010869578490283
0.0003165865589087079
0.0002855036639902163
0.00024949808330577814
0.00021132290609723108
0.00017351247731893876
0.00013813254265669883
0.0001066408026509574
7.985805871533876e-05
5.802972081640859e-05
4.094621572017702e-05
2.8088825798778943e-05
1.8772483248587487e-05
1.2265880518000133e-05
7.878940347861574e-06
5.0160471072515965e-06
3.1993241848696717e-06
2.0693969435772132e-06
1.3718764666697874e-06
9.369270981043462e-07
6.575010810897762e-07
4.6979282641940477e-07
3.3764495442500076e-07
2.412748496214506e-07
1.6984653621696917e-07
1.170244765493365e-07
7.858652634224414e-08
5.130510761182726e-08
3.251396954881322e-08
1.99853790644344e-08
1.1908985188041408e-08
6.877121823864008e-09
3.8473416976401945e-09
2.084265304213817e-09
1.0928076921935297e-09
5.54175919639767e-10
2.7164609759617037e-10
1.2869909691169624e-10
5.90265686720808e-11
2.635938494609133e-11
1.1636488128796905e-11
5.245355525974657e-12
2.545927516815585e-12
1.4030770667634279e-12
8.86032628636028e-13
6.137035070914258e-13
4.4098665162503454e-13
3.166239969141022e-13
2.230296061064073e-13
1.530325815745185e-13
1.020536328025602e-13
6.60864082363038e-14
4.1499348508328415e-14
2.5196787633266858e-14
1.4714547648112308e-14
8.197401602159341e-15
4.3055453715622065e-15
2.1005779696637653e-15
9.409873521675831e-16
3.984178044236564e-16
1.9501913007611272e-16