# vtk DataFile Version 4.1 
COMMENT
ASCII
DATASET STRUCTURED_POINTS 
DIMENSIONS 400 400 1 
ORIGIN 0 0 0
SPACING 0.002506265664160401 0.002506265664160401 0 
POINT_DATA 160000
SCALARS U double 1
LOOKUP_TABLE default
8.018000578751317e-07
2.237388624320899e-10
7.433583883494846e-10
1.5041078568698947e-09
1.8331992162955768e-09
1.7507336984479279e-09
1.4400635282154229e-09
7.834997537808271e-10
2.1372306013531007e-10
1.4878998714746002e-11
3.923657209422705e-10
1.4290608555187593e-09
2.5248480339694786e-09
2.8978480325104088e-09
2.509989434239708e-09
1.4968071775369322e-09
5.784973068096316e-10
1.7157373144089323e-10
6.634009149741629e-11
5.022729048434389e-10
1.6029050341028299e-09
3.0290863233107247e-09
4.548155745658293e-09
5.752886540828842e-09
5.993159891120314e-09
5.731623636861773e-09
5.387393459962322e-09
5.161931389663369e-09
5.133517495925059e-09
5.14984321894397e-09
6.275407670944089e-09
7.718033362013076e-09
8.647871206310544e-09
8.64729771367126e-09
6.711783263754636e-09
4.1494845402761025e-09
1.9520395327401834e-09
8.918091796524598e-10
1.88546225491057e-09
4.424005750079019e-09
7.847741098330492e-09
1.1549180537679036e-08
1.4476282275746248e-08
1.80106279099144e-08
2.3112501956477114e-08
2.9085179778473144e-08
3.293455873122182e-08
3.213698932613646e-08
2.8802555336413796e-08
2.2546513410808303e-08
1.4682626334089018e-08
7.119995764197634e-09
2.1461809873258494e-09
2.786162818008485e-10
7.327591690243823e-10
2.321819534530112e-09
3.485013305250954e-09
3.6526277112904518e-09
3.3966879173310244e-09
3.2709189665378925e-09
2.9920044252156797e-09
2.883065175016959e-09
3.582521372098778e-09
5.485916226916166e-09
9.162641877812305e-09
1.504760020139344e-08
2.1685209617506503e-08
2.565337254340971e-08
2.535875532817898e-08
2.2197995736760265e-08
1.8902678466141852e-08
1.8084908116098313e-08
2.035974396716245e-08
2.2424775972906968e-08
2.2859268322723675e-08
2.1836482449173147e-08
2.2143210114656712e-08
2.38462894667432e-08
2.6227725735000763e-08
2.6996741446665752e-08
2.3039452230605905e-08
1.679254418342784e-08
1.117824182868572e-08
7.071079654476142e-09
6.4644280098038885e-09
8.49067146238155e-09
1.1465880678356368e-08
1.4765713969874528e-08
1.642672631462192e-08
1.5385377775762976e-08
1.1905711229135409e-08
8.682693238610704e-09
9.013439953387457e-09
1.451171201885523e-08
2.3756795226151087e-08
3.2297735549293694e-08
3.459475641981953e-08
3.14763830220359e-08
2.450699599107666e-08
1.7391163882392866e-08
1.2008503357768101e-08
9.010261993660786e-09
9.058357390169616e-09
1.1847515071961357e-08
1.7467849308669843e-08
2.2017249006969008e-08
2.2152524869434914e-08
1.704805429370126e-08
9.467552873213611e-09
4.881174272250793e-09
5.302835861860225e-09
9.262019226188571e-09
1.3038441633200941e-08
1.3836849640178432e-08
1.2263980883744532e-08
1.022008380082337e-08
8.565040942226745e-09
7.316689251382707e-09
4.613790628215032e-09
1.6722311589795287e-09
4.455483843041463e-28
4.2580652726654277e-29
2.7714331188785782e-30
2.442864740503017e-30
1.116473545572453e-11
3.559354846222101e-11
7.25949602380222e-11
1.195701938844831e-10
1.7664417715168678e-10
2.4211956500668477e-10
3.193839914009884e-10
4.078593431595382e-10
5.142807990823782e-10
6.342958706507045e-10
7.771447606240719e-10
9.301384749960894e-10
1.1036915410668216e-09
1.2797787965276006e-09
1.4672218006291777e-09
1.6538134553726708e-09
1.83816689461227e-09
2.029290523603437e-09
2.2132237269239157e-09
2.413339507236794e-09
2.6062582284072e-09
2.8239927158098446e-09
3.0375350580282613e-09
3.2752330597883787e-09
3.4995513694879062e-09
3.742310393930289e-09
3.959150898319412e-09
4.168559491920494e-09
4.355898017171888e-09
4.502002594243439e-09
4.636808453591094e-09
4.709849870685786e-09
4.8047690011071215e-09
4.81343765557409e-09
4.854957945130697e-09
4.894766462375886e-09
4.864720495453595e-09
4.930824776679984e-09
4.973475622628848e-09
5.007078698105861e-09
5.0722906078500506e-09
5.214094529241473e-09
5.321756779367572e-09
5.379456571740201e-09
5.582612972798528e-09
5.7212445436079955e-09
5.80888969947477e-09
5.895222933320692e-09
5.923928074349094e-09
6.023055117941077e-09
6.007102007510327e-09
5.779143152416497e-09
5.510859129284457e-09
5.481750580438916e-09
5.421317937191352e-09
4.745959397220927e-09
4.16334276469371e-09
4.249163232084709e-09
4.161887116665665e-09
3.508131221284047e-09
3.0088522893028618e-09
3.1195439567005077e-09
3.2381655137138952e-09
2.938686403860714e-09
2.865754332891669e-09
3.276168790425373e-09
3.501852760109563e-09
3.2804060239989533e-09
3.1389023922921254e-09
3.505707555046064e-09
3.93467566779398e-09
3.726107710760414e-09
3.1012660728269403e-09
2.5258864450431218e-09
2.0102687158647128e-09
1.5198972907468804e-09
1.0782493546058331e-09
7.788396826982156e-10
6.130936530933082e-10
4.2014787524200817e-10
2.479006738975727e-10
2.148920332609829e-10
2.398619798379214e-10
2.0996315329677947e-10
1.9066895367725703e-10
2.326326364979147e-10
2.6308198418406727e-10
2.5596883006536723e-10
2.6903222179998117e-10
4.97471776421537e-10
9.33625553445766e-10
1.062776968827351e-09
8.908853691105832e-10
8.330461338536632e-10
7.316485810821409e-10
3.90817858367985e-10
1.365352836634383e-10
9.49356788308989e-11
8.81312523659029e-11
1.4150025401035812e-10
2.332565759876579e-10
2.125565333645593e-10
1.6299719350119608e-10
1.3217093700512721e-10
8.50637384595657e-11
8.964244025909543e-11
1.7483831984348156e-10
3.2013988875001043e-10
3.844070502975844e-10
2.9889818222979203e-10
2.569608863921628e-10
2.5239970083933586e-10
1.5122459354470498e-10
8.1117801384281e-11
5.901926093478593e-11
4.8121833411346885e-11
8.518954089687319e-11
1.1817816344402112e-10
1.3997044652052048e-10
1.813192035596833e-10
1.6876340321386514e-10
1.3836490255769538e-10
1.685303781736547e-10
2.239768807873497e-10
2.313680353782151e-10
2.096645880834657e-10
2.1455069079697572e-10
2.578485282169879e-10
2.2248421523728513e-10
1.5896152442473955e-10
2.2999290926199733e-10
3.502542295363878e-10
2.897839028669376e-10
1.8690223537785902e-10
1.8970016949322062e-10
2.6118435308349587e-10
2.9362572050841163e-10
2.4634268239192043e-10
2.041244605136098e-10
2.1317220808279394e-10
2.407696612739692e-10
3.0840495231532875e-10
3.225073660315764e-10
2.817611174133083e-10
2.943954060624192e-10
3.1644719557933553e-10
2.7693065584607943e-10
2.805892629997792e-10
3.966662236005867e-10
4.921178991525953e-10
4.1092960793826366e-10
2.724926817854342e-10
2.4543484106995704e-10
3.419251812656323e-10
3.914674583817343e-10
3.701042269490435e-10
3.86336520737414e-10
3.5477131223288064e-10
2.2684126580452337e-10
1.8935542886763533e-10
2.921815225186474e-10
4.063909028497607e-10
3.85013696546369e-10
2.3332454238822515e-10
1.1555277035779186e-10
1.5608394277446807e-10
2.762379963656808e-10
2.4868074947401104e-10
1.0333757616564303e-10
7.165578482874914e-11
1.6271483497827e-10
2.1993491609777066e-10
1.8040612833872306e-10
1.0938330348572053e-10
1.0102943621672892e-10
2.2695507169423223e-10
3.161014065000556e-10
2.467876108821707e-10
1.1354078170007633e-10
2.0993682893048794e-11
8.098614255152732e-11
2.1363288779450045e-10
2.4152490923154566e-10
1.0303669807374909e-10
1.2430637178128117e-11
3.0538480703020176e-11
9.640859285015499e-11
1.3369671838511357e-10
1.1307183299828166e-10
5.4122172120532755e-11
2.076622916402691e-11
1.302320397678281e-10
3.1615357930769673e-10
4.2420036125854496e-10
4.262767869379682e-10
3.6188188519765576e-10
3.521369021689753e-10
5.410881864610108e-10
8.94612651874629e-10
1.0324685131787786e-09
7.826292384378289e-10
5.442572247574372e-10
7.302682438303794e-10
1.1024395362502286e-09
1.099002430275576e-09
8.221834372447753e-10
7.360649672927055e-10
7.697813215396906e-10
6.761545658246931e-10
6.717590943845138e-10
9.634733722266454e-10
1.340244640544519e-09
1.6790483447842184e-09
2.17815080714012e-09
2.46476149337182e-09
2.077789711743733e-09
1.7648493987140991e-09
2.298517404863917e-09
3.1835143803222236e-09
3.6331023479292916e-09
3.571864237305054e-09
3.0461123657868502e-09
2.357397868812494e-09
2.197227925198808e-09
2.8710575799425996e-09
3.738576137454105e-09
3.625174361260025e-09
2.3466256409039502e-09
8.789906301185059e-10
1.7931151598019473e-10
4.724940836820041e-10
1.4040415243485455e-09
2.588002440696541e-09
3.6606375471877955e-09
3.775594246184616e-09
2.617681637810569e-09
1.3274812382564716e-09
1.2805760616621117e-09
2.8640692346368425e-09
4.473097340262767e-09
4.507954312063415e-09
3.035914840883804e-09
1.1663064973613e-09
5.765404596454514e-10
1.8291285304903e-09
4.134552529361857e-09
5.774946319007217e-09
5.398779981638309e-09
3.741537371273394e-09
1.8565262301933623e-09
4.1921326904066755e-10
1.788136180314258e-11
7.435518665097127e-10
2.264428620534865e-09
3.4480765875450974e-09
3.2492435407199386e-09
2.1312820131525145e-09
1.375305750780978e-09
2.0689761552481173e-09
4.2381695195547274e-09
6.242639274474434e-09
6.2723577068506285e-09
4.125561911649804e-09
1.331479559879233e-09
1.4348985526350657e-10
1.7832131836325947e-09
5.3724808361632415e-09
8.135213653835933e-09
7.829529335378259e-09
5.146721156612615e-09
2.1664003989811434e-09
3.7463431247658273e-10
1.2414036005118426e-11
1.0609431859293785e-10
5.143697645519882e-11
4.532627105522959e-31
2.0040249177683537e-10
1.4124394060051775e-09
4.692741659075865e-09
9.495271339237544e-09
1.157278974250435e-08
1.1052193786225199e-08
9.090966371654278e-09
4.946149787327571e-09
1.3492107219359416e-09
9.392952068390182e-11
2.4769626510133204e-09
9.021507680753577e-09
1.5939094436200668e-08
1.8293803361830388e-08
1.58452936921178e-08
9.449182934798578e-09
3.651991359586886e-09
1.0831265372863968e-09
4.187978718153196e-10
3.1707948974885443e-09
1.0118967306978646e-08
1.9122296594915443e-08
2.8712018689942493e-08
3.6317354795748934e-08
3.783417464758656e-08
3.618312436692341e-08
3.401003623505498e-08
3.2586718402881734e-08
3.240734454374177e-08
3.251040707956043e-08
3.961597456444979e-08
4.8723115594988254e-08
5.45930820290908e-08
5.458946163165974e-08
4.237076680932216e-08
2.6195250192952816e-08
1.232301589518909e-08
5.629895558982793e-09
1.1902720691535576e-08
2.7928273103210724e-08
4.954194660202466e-08
7.290873619882276e-08
9.13872150615963e-08
1.1369915941438686e-07
1.459067422612314e-07
1.8361161580648288e-07
2.079123316607052e-07
2.0287736167595978e-07
1.8182743806138496e-07
1.4233371736711916e-07
9.268984293781888e-08
4.494776847716874e-08
1.354861004461492e-08
1.7588746599156729e-09
4.6258299259735745e-09
1.4657397327200208e-08
2.2000514659284362e-08
2.3058646400595932e-08
2.1442925972666857e-08
2.064896009556732e-08
1.8888202555330316e-08
1.820048077034969e-08
2.2616072611631836e-08
3.46319998801795e-08
5.784277398506704e-08
9.49938837590657e-08
1.3689639903548406e-07
1.6194698535325304e-07
1.6008709851930754e-07
1.4013356272628594e-07
1.1933057875776055e-07
1.1416808237734415e-07
1.28528876757496e-07
1.4156520199786754e-07
1.4430810553200512e-07
1.378513681730822e-07
1.3978770697865048e-07
1.505390639950063e-07
1.6557281535859806e-07
1.70427528943827e-07
1.454455871883182e-07
1.0600952768746482e-07
7.05670399726972e-08
4.463896633073754e-08
4.080923966037416e-08
5.3600696931009634e-08
7.238287313443118e-08
9.321436625781599e-08
1.0370015877539598e-07
9.712623730425809e-08
7.515947615785021e-08
5.481290977865246e-08
5.690087826244337e-08
9.161087922421784e-08
1.4997409646701963e-07
2.0389213531646985e-07
2.1839298134151715e-07
1.987070250360733e-07
1.5471003331445815e-07
1.0978854954731625e-07
7.58083918246671e-08
5.6880816144044047e-08
5.7184437216119214e-08
7.47920900686515e-08
1.1027265640636844e-07
1.389925280357157e-07
1.3984651002503672e-07
1.0762253556843789e-07
5.976764434754053e-08
3.081432887770344e-08
3.347623320084676e-08
5.847013251091787e-08
8.231028152840999e-08
8.73505455168235e-08
7.742119400447326e-08
6.451829126171382e-08
5.4070183469001424e-08
4.6189473334272413e-08
2.912636465346412e-08
1.0556615686777685e-08
2.812699092291692e-27
2.6880708693512295e-28
1.749575959071516e-29
1.5421542710642652e-29
7.048177569095727e-11
2.2469824822165287e-10
4.5828418631869854e-10
7.548337905641405e-10
1.1151357164253525e-09
1.5284748070267521e-09
2.0162368316273073e-09
2.5747722238499055e-09
3.246599444011471e-09
4.004241699607938e-09
4.906031398139736e-09
5.8718642834111874e-09
6.9674861476089045e-09
8.07910607722035e-09
9.262413628242768e-09
1.0440346702213836e-08
1.1604150162122934e-08
1.2810693102725275e-08
1.3971843658415893e-08
1.5235153084435595e-08
1.6453028249148707e-08
1.7827562680542714e-08
1.9175632549680808e-08
2.0676194502866674e-08
2.2092291897230833e-08
2.36248035429887e-08
2.4993694355644005e-08
2.6315668313780426e-08
2.749831630104407e-08
2.8420658802522614e-08
2.927167371264272e-08
2.973277633314217e-08
3.033199060791544e-08
3.038671489243666e-08
3.064882802057638e-08
3.0900134913981216e-08
3.071045795213711e-08
3.112776717904061e-08
3.1397017388247857e-08
3.160914999431715e-08
3.202082577590605e-08
3.291601870002357e-08
3.359567892071253e-08
3.395993151223606e-08
3.524243605041868e-08
3.611760226606494e-08
3.667089672079683e-08
3.721590915272897e-08
3.7397121624727466e-08
3.802290000336121e-08
3.7922189730788056e-08
3.6483109964392606e-08
3.4789461743631175e-08
3.460570260141443e-08
3.422419781586195e-08
2.996073189551526e-08
2.628273567514361e-08
2.6824511067523743e-08
2.6273546325498508e-08
2.214645558002971e-08
1.8994561311628085e-08
1.9693345918152613e-08
2.044219106604574e-08
1.855161161358081e-08
1.8091199283427342e-08
2.06821016698681e-08
2.2106820329025402e-08
2.0708850870282885e-08
1.9815553642689124e-08
2.2131155235403305e-08
2.483918485430214e-08
2.352251774452088e-08
1.9577959600546527e-08
1.5945649813769424e-08
1.2690610473665775e-08
9.594948339307824e-09
6.806872357309779e-09
4.916731259136638e-09
3.8703943775681605e-09
2.652348406934806e-09
1.5649703264869687e-09
1.356590323715058e-09
1.5142229143510131e-09
1.3254748339282832e-09
1.2036726241838085e-09
1.4685848463731455e-09
1.6608083076510371e-09
1.6159037297470112e-09
1.6983715185856696e-09
3.140485889466105e-09
5.89387783510541e-09
6.7091968478301735e-09
5.624063642261461e-09
5.258930762787411e-09
4.6188189035861175e-09
2.4671911608428766e-09
8.619325800624786e-10
5.993187431053154e-10
5.563631297176681e-10
8.932759045587549e-10
1.472523709352498e-09
1.3418465637326766e-09
1.0289837745072955e-09
8.343809283974192e-10
5.369982439187396e-10
5.659030965657203e-10
1.1037355332117375e-09
2.021008730398258e-09
2.4267204181004607e-09
1.886912118777824e-09
1.6221664747780326e-09
1.5933722003150085e-09
9.546646155157284e-10
5.120879670085734e-10
3.7258225482797247e-10
3.0378796540110766e-10
5.377924211926075e-10
7.460460519160814e-10
8.836183941970747e-10
1.1446486559790399e-09
1.065385237055786e-09
8.734827676165282e-10
1.0639141750069245e-09
1.4139419903155969e-09
1.4606015553394562e-09
1.3235900238065064e-09
1.3544354654044997e-09
1.6277700622736187e-09
1.404518953030166e-09
1.0035070291121417e-09
1.4519205318746013e-09
2.211117329102064e-09
1.8293746521549088e-09
1.1798937361553353e-09
1.1975567936902878e-09
1.6488287663439414e-09
1.8536276342632398e-09
1.5551348934607893e-09
1.2886157935413671e-09
1.3457332520972412e-09
1.519953009759728e-09
1.9469273371743102e-09
2.035954360178245e-09
1.7787276693399736e-09
1.858486576491228e-09
1.997697155056131e-09
1.7482334843218552e-09
1.7713298783001097e-09
2.504111262364106e-09
3.1066874373448784e-09
2.59415447561074e-09
1.720217030774422e-09
1.5494037887094624e-09
2.15853694201931e-09
2.471292015953997e-09
2.3364282306145168e-09
2.438900957736326e-09
2.239633186970284e-09
1.4320245452559794e-09
1.195380483150695e-09
1.8445105674799239e-09
2.565502117904293e-09
2.430550110707165e-09
1.4729527739387833e-09
7.294722273648405e-10
9.853411652445063e-10
1.7438607994229363e-09
1.569894859810536e-09
6.523590185040716e-10
4.52355272839884e-10
1.027201275481123e-09
1.3884255013910332e-09
1.1388845101855363e-09
6.905250456842241e-10
6.377879789314958e-10
1.4327429896134453e-09
1.9955142257409813e-09
1.557943679228504e-09
7.167707590830154e-10
1.3253086510314716e-10
5.112568189393085e-10
1.3486414736341185e-09
1.5247208089922365e-09
6.504596074282524e-10
7.847327728981498e-11
1.9278614843930625e-10
6.086170910983299e-10
8.440130223600665e-10
7.138103362999108e-10
3.4166745915604145e-10
1.3109497414338664e-10
8.221408784016926e-10
1.995843587071567e-09
2.677931315866325e-09
2.6910395681447983e-09
2.2845214703268315e-09
2.2230024392075163e-09
3.4158316010629514e-09
5.6475935779911565e-09
6.5178628228518506e-09
4.940654317472146e-09
3.4358373994314424e-09
4.610104982782319e-09
6.959582375683716e-09
6.937884294856615e-09
5.190355725893545e-09
4.646699075354812e-09
4.859546798131297e-09
4.2684911460609196e-09
4.240743006991143e-09
6.082303909016514e-09
8.46082045566357e-09
1.05996518485063e-08
1.3750432083118696e-08
1.5559774559501005e-08
1.3116863267997329e-08
1.1141304685791647e-08
1.4510293485576066e-08
2.0097184331202476e-08
2.2935384878980552e-08
2.2548795264397026e-08
1.9229780172243885e-08
1.488199952993874e-08
1.3870863880287069e-08
1.8124678112420623e-08
2.360122958296336e-08
2.288533635070865e-08
1.481399561223261e-08
5.548973432657597e-09
1.1319743399420683e-09
2.9828043981377305e-09
8.863563330484835e-09
1.633778142224564e-08
2.3109211634252987e-08
2.3834920927142004e-08
1.6525143005686122e-08
8.380246467978231e-09
8.084139126377644e-09
1.8080561439146585e-08
2.8238183038951227e-08
2.8458231357826494e-08
1.916540429288072e-08
7.362767641017128e-09
3.639637993630819e-09
1.1547091940261415e-08
2.6100986011947676e-08
3.6456615805875543e-08
3.408191812333167e-08
2.3619923533988636e-08
1.1720050675609623e-08
2.6464483383748756e-09
1.1288311636723492e-10
4.693963065919258e-09
1.4295094651695435e-08
2.1767337127901863e-08
2.0512125460607503e-08
1.3454554421006572e-08
8.682157478556931e-09
1.3061224232533654e-08
2.6755108941192867e-08
3.9409111197298304e-08
3.9596720468734464e-08
2.604422920804338e-08
8.405487442909824e-09
9.058360435602533e-10
1.1257233287467457e-08
3.3915894442825467e-08
5.135672996655589e-08
4.942697769869269e-08
3.2490697835413596e-08
1.3676253018561145e-08
2.3650261739584544e-09
7.836847586779151e-11
6.697620373367937e-10
3.247161073465045e-10
6.032620889359843e-11
6.011914504853454e-10
4.100204729606542e-09
1.247597750719916e-08
2.4489364618549815e-08
3.01906926617342e-08
2.8732240395006247e-08
2.25420531118279e-08
1.0744548261624136e-08
1.7341808022396446e-09
8.329271134236951e-10
1.1639349517279215e-08
3.3301280460865026e-08
5.13921579923475e-08
5.6477721541898485e-08
4.437155275240274e-08
2.5347966537139616e-08
9.298459267142491e-09
2.2026312127545967e-09
1.7939016356353782e-09
1.0930256715202162e-08
3.153705478805502e-08
5.679918404755641e-08
8.576666879919825e-08
1.0602569437676908e-07
1.0990879869312308e-07
1.0857954733373276e-07
1.0479669280923286e-07
1.0289876021220133e-07
1.0358331826160176e-07
1.1035219632624439e-07
1.3482071186067438e-07
1.6153119181601897e-07
1.8336760980100832e-07
1.7695850237814233e-07
1.3109870919429213e-07
7.754035463805308e-08
3.020244272977355e-08
5.552696511054305e-09
2.223146837212107e-08
7.457103455696685e-08
1.4682666555743953e-07
2.2367198360401995e-07
2.8949323366760205e-07
3.6896961372104873e-07
4.751798224023137e-07
5.873968436565946e-07
6.67699796157991e-07
6.609273947611648e-07
5.811141858730999e-07
4.566300677172692e-07
2.9762423612455916e-07
1.5050300958997127e-07
5.166896096098431e-08
1.6022233852678648e-08
2.62078940398965e-08
5.668016693169817e-08
7.656157448895984e-08
7.867175974576389e-08
7.046527469852206e-08
6.281125916898397e-08
5.186784742035882e-08
3.912487781382817e-08
3.6257362340009495e-08
6.153910485784629e-08
1.275574911694117e-07
2.5094746721165646e-07
4.0277896547953305e-07
5.015942252270016e-07
5.25439815233207e-07
4.7491479607082523e-07
4.2045170020530936e-07
4.2123134799263043e-07
4.826106037206156e-07
5.36595724342235e-07
5.339887367485664e-07
4.988013829081019e-07
4.860679456960904e-07
5.124779383521171e-07
5.547581434117751e-07
5.48074156978178e-07
4.454278825732058e-07
2.907108415191359e-07
1.601781660914603e-07
7.274091542347498e-08
6.465202482343234e-08
1.168028734507853e-07
1.9449462398021088e-07
2.855510144948493e-07
3.52198917574043e-07
3.5473541086182356e-07
2.8562530343351115e-07
2.1082784710932865e-07
2.061051224645296e-07
3.183914595915676e-07
5.116471373721988e-07
6.781270249625788e-07
7.044894811544844e-07
5.983626567512784e-07
4.274697347040055e-07
2.7633103842822375e-07
1.7118349327803766e-07
1.1112599098555255e-07
1.1137579802743333e-07
1.736960558527297e-07
3.0876586473242485e-07
4.3504547892443733e-07
4.6047602263599355e-07
3.5186160715379983e-07
1.7890857071264178e-07
7.240993166051306e-08
7.815702688903528e-08
1.6275657259370648e-07
2.4026169396218105e-07
2.445322630796921e-07
2.0273521920449739e-07
1.6788621323807328e-07
1.5538891452619068e-07
1.4975033334293804e-07
1.0198513527299145e-07
4.036639066384582e-08
9.461609758552016e-27
8.952628869838209e-28
6.397726429837895e-29
2.8751545312528266e-29
1.927208814314708e-10
6.143811459448441e-10
1.2438702498756452e-09
2.043963506706355e-09
2.98522257352347e-09
4.080421798461748e-09
5.345210252093528e-09
6.8437554948453e-09
8.611796711817391e-09
1.0724746890680919e-08
1.3157618965916543e-08
1.5896780295539066e-08
1.8884706707293686e-08
2.2059737222674946e-08
2.5272751124499494e-08
2.8539790778655755e-08
3.170172266096648e-08
3.492685851819421e-08
3.8126973481959136e-08
4.142718992485867e-08
4.491423088612384e-08
4.856739736315088e-08
5.255508679308921e-08
5.6639647080400585e-08
6.101332948172493e-08
6.526949129760159e-08
6.950230806514185e-08
7.336653165364344e-08
7.678914073346268e-08
7.978815086509651e-08
8.187671213145127e-08
8.377425581889396e-08
8.506252371428756e-08
8.554216029251987e-08
8.644472640535056e-08
8.704966058316314e-08
8.711432268792535e-08
8.836442856176693e-08
8.981634368636575e-08
9.072535857043971e-08
9.287321588900017e-08
9.602651192843782e-08
9.86533415618406e-08
1.0119949525521987e-07
1.051093386377361e-07
1.0903840186573256e-07
1.1159998974819893e-07
1.1378463180182743e-07
1.1547910808681329e-07
1.1748044452836811e-07
1.185395344121642e-07
1.1430468075951214e-07
1.0923881161980255e-07
1.101785110144794e-07
1.0827264242676222e-07
9.496726069194494e-08
8.458437862745683e-08
8.670401969239875e-08
8.397554103459185e-08
6.934761535709648e-08
6.094141029648309e-08
6.426895603793566e-08
6.43802318629628e-08
5.719537972979202e-08
5.576979007823843e-08
6.390300464989915e-08
6.818269419832318e-08
6.329039328170975e-08
6.170901666730295e-08
6.901238056935193e-08
7.439330060630587e-08
7.011142148589036e-08
6.073004538433815e-08
5.207007826259943e-08
4.38679178722361e-08
3.4400173796821584e-08
2.5179614209150345e-08
1.8353395538667402e-08
1.3501497480795478e-08
9.181951316743494e-09
5.738950571848347e-09
4.2636848874702955e-09
4.2494411080933945e-09
4.338346271011864e-09
4.403067616642398e-09
5.1877753752866626e-09
6.087796022099866e-09
6.02558914843338e-09
6.4484217860318755e-09
9.861979973983957e-09
1.569763970248923e-08
1.8927631748185364e-08
1.79950093325464e-08
1.6580886819403634e-08
1.4575826349425158e-08
9.555542806017738e-09
4.31716670365035e-09
1.905617170884324e-09
1.4490062585681485e-09
1.923954299766771e-09
2.7458127469242345e-09
3.0676733193335926e-09
2.9497524309316307e-09
2.5325896733658577e-09
1.7904616908625652e-09
1.520762684967252e-09
2.4645164723299083e-09
4.1773714049991984e-09
4.900712129351505e-09
4.5906693709695935e-09
4.229898307789356e-09
3.3862257536792825e-09
2.015803007849199e-09
1.2787918383458474e-09
8.932344997956967e-10
5.757482851204746e-10
8.685147562705015e-10
1.4632665223258605e-09
1.879917357975321e-09
2.056260980221629e-09
2.0980288358926085e-09
2.116623300844588e-09
2.5712045094535943e-09
3.2114362569240136e-09
3.1620888425410674e-09
2.9442934087783953e-09
3.502503570805634e-09
3.935611694164201e-09
3.1285286024331374e-09
2.3056845374407497e-09
3.2250043508172057e-09
5.177514357905406e-09
4.859154755283517e-09
3.1327303277362737e-09
2.968026952334472e-09
3.968045531052504e-09
4.29765679134402e-09
3.5854007653446014e-09
3.037556370809477e-09
3.3063473419210137e-09
4.2466488882836406e-09
4.711521509942108e-09
4.1317322436466425e-09
4.332906003874951e-09
5.3864598288521255e-09
5.057900770184779e-09
3.984082968863748e-09
4.1971753224819e-09
6.001417664613577e-09
7.7584724098275e-09
6.948898264673317e-09
4.815710338905767e-09
4.455150545120714e-09
5.702720933388305e-09
5.9050152959057915e-09
5.570944141148312e-09
6.3360767187916535e-09
6.559532443425601e-09
4.7670164255815275e-09
3.4018131313126963e-09
4.381006334443977e-09
7.104551293344299e-09
7.570941848455463e-09
4.511175405373375e-09
2.149871833467342e-09
3.1514322609618017e-09
5.474535458897735e-09
5.177473922670797e-09
2.4044509728602114e-09
1.2385282411225435e-09
2.777871762569781e-09
4.94185064365899e-09
4.822543345551172e-09
3.600788079268678e-09
2.328486214105739e-09
4.186929811358155e-09
7.175708539202176e-09
8.304509095568341e-09
5.468232597655403e-09
1.8081180759722935e-09
2.3869533768953423e-09
6.168239292938432e-09
7.555500622338945e-09
4.468507867748117e-09
1.066884401303708e-09
8.791584378855311e-10
3.3361470791739044e-09
5.2465494647881365e-09
3.910348910692517e-09
1.5241685245567671e-09
8.247791012795396e-10
3.4896606116259994e-09
7.722313972722414e-09
1.0239909190791116e-08
1.0258881524977138e-08
8.393109995143356e-09
7.80099086670438e-09
1.169641834501142e-08
2.0354329935426216e-08
2.5387679727222885e-08
1.913566369956134e-08
1.2502372641270917e-08
1.6858696919459437e-08
2.5943905113086525e-08
2.539264120801194e-08
2.0418411986991126e-08
1.901358146298553e-08
1.8508645797081154e-08
1.684725910932556e-08
1.8924321705489392e-08
2.5550276068407508e-08
3.205664494933548e-08
4.004683883479828e-08
5.3478125701883735e-08
6.3673911892285e-08
5.962911128637051e-08
4.9524700679484204e-08
5.214647659099784e-08
7.184717812535895e-08
9.432909037563016e-08
1.0037693390680951e-07
8.322750849513135e-08
5.93358735282469e-08
5.336462977458077e-08
7.377673324906269e-08
9.908150194773548e-08
9.736848526646235e-08
6.311958735262507e-08
2.4518002298114257e-08
5.432634945350749e-09
1.2352345107265168e-08
3.940888102833751e-08
7.345999407373623e-08
1.0183333571726387e-07
9.914857167602007e-08
6.588712769428497e-08
3.526959644870348e-08
3.789724434805973e-08
7.909194269664464e-08
1.1619075353690054e-07
1.1534625015940174e-07
7.708390959953106e-08
2.907644464026437e-08
1.531506909927354e-08
4.950443036025202e-08
1.1042533144042834e-07
1.517465716295579e-07
1.4432544773695747e-07
1.0311897865650577e-07
5.0518074883491356e-08
1.0749052130124627e-08
8.689742737067287e-10
2.1396042343906658e-08
6.021929816635428e-08
8.800597504261984e-08
8.219980201900449e-08
5.384539972280759e-08
3.390592190088922e-08
4.9472358215778814e-08
1.0164266860122472e-07
1.5241974508682716e-07
1.580962487227145e-07
1.0876716530997143e-07
3.769593361755686e-08
3.1662925937092483e-09
4.121899053272547e-08
1.3396059909302202e-07
2.1089303822313856e-07
2.0953449505379953e-07
1.4180923157931584e-07
6.183465230417285e-08
1.2083491007473543e-08
2.5712349054150244e-10
2.1133910119417312e-09
1.1892688228453846e-09
3.293266341845624e-10
7.064165348072775e-10
5.076588249383923e-09
1.6010170330941424e-08
3.093871242147179e-08
3.725924902410473e-08
3.40340621339548e-08
2.8920807379722014e-08
1.4765969689784953e-08
2.9316365643598213e-09
9.485980646185777e-10
1.4462397976734157e-08
3.8495450366466945e-08
6.174919901116072e-08
6.607139190152137e-08
4.997397333298943e-08
2.668643219784874e-08
8.49416407609028e-09
1.3433478834101677e-09
1.644785786709194e-09
1.1618422976782358e-08
3.298892088547068e-08
5.817343564729991e-08
8.736692297087677e-08
1.0652627409473144e-07
1.1174314867062677e-07
1.1651263565508274e-07
1.1218752897462405e-07
1.1170637409507826e-07
1.1865142370151035e-07
1.351280518353821e-07
1.691473896642074e-07
2.0616181499985599e-07
2.4375859001255036e-07
2.410607444100226e-07
1.8738163722839135e-07
1.1435959932143775e-07
4.861167931847543e-08
3.650893770539753e-09
1.641996027877526e-08
8.07994017160836e-08
1.7959933442364013e-07
2.809773974927268e-07
3.624471347469434e-07
4.643324497510144e-07
5.958779925621584e-07
7.525218352824922e-07
8.727424195178543e-07
8.859319748919393e-07
8.059040419581527e-07
6.479845219488963e-07
4.5869831466683476e-07
2.6505931435880323e-07
1.2377192766876105e-07
6.64109385485379e-08
7.585546828011046e-08
1.0801151119542919e-07
1.2347059399394813e-07
1.0790351615578358e-07
8.95695794416782e-08
7.415327414726487e-08
6.209602666568496e-08
4.072803229269088e-08
1.8720136468551546e-08
2.8332271892781447e-08
9.789470876049023e-08
2.540598862545842e-07
4.6202667305301343e-07
6.184865718610245e-07
6.696948654020227e-07
6.306146591589472e-07
5.828667228101527e-07
6.296043946222524e-07
7.574886553415827e-07
8.492952578687787e-07
8.29314573620421e-07
7.432985684143202e-07
7.067538189872366e-07
7.29006381432827e-07
7.903684931263632e-07
7.869972480684653e-07
6.29579179627705e-07
3.8744990287058513e-07
1.7715625888118961e-07
4.4855802426163026e-08
2.4266374810740845e-08
8.332794287153368e-08
1.8815178227223682e-07
3.265534941618892e-07
4.57022833916251e-07
5.125799255196562e-07
4.443445486562498e-07
3.465961342079352e-07
3.100536125086294e-07
4.270744928463828e-07
6.632911103663888e-07
8.572869784274689e-07
8.684278606194416e-07
7.084720757142065e-07
4.786483978180765e-07
3.0118871659753416e-07
1.7981839989621877e-07
1.017980592849267e-07
7.222402896252213e-08
1.329080819682627e-07
3.0576350221023326e-07
5.027896642692598e-07
5.673981490496072e-07
4.4107417466318796e-07
2.160839668427539e-07
5.8581210109438974e-08
5.270371414584206e-08
1.5307453582189803e-07
2.405813534868532e-07
2.3658769216676543e-07
1.9294735464302215e-07
1.7120458859182067e-07
1.960710383793706e-07
2.1544293815154245e-07
1.6031598068453288e-07
6.17698260626014e-08
1.4768028709050428e-26
1.3868443027139434e-27
1.0520468028656918e-28
2.6104478305705573e-29
1.9486818161400342e-10
6.110998641361481e-10
1.2163340530152271e-09
1.963460408821305e-09
2.8403924012351625e-09
3.850216150227675e-09
5.031826779816669e-09