# vtk DataFile Version 4.1 
COMMENT
ASCII
DATASET STRUCTURED_POINTS 
DIMENSIONS 400 400 1 
ORIGIN 0 0 0
SPACING 0.002506265664160401 0.002506265664160401 0 
POINT_DATA 160000
SCALARS U double 1
LOOKUP_TABLE default
1.2091039014445155e-06
2.9604490309788153e-09
8.874907616162956e-09
1.308929832951636e-08
1.2020558473676827e-08
1.1617697614382237e-08
1.3810949568722317e-08
1.811814693209529e-08
2.0176902967000968e-08
1.8252533072727742e-08
1.523422651600018e-08
1.183322329591359e-08
5.4239692078078095e-09
5.448477552856976e-10
2.316664313264823e-09
1.5410949556433173e-08
3.264342677171637e-08
4.609184797384308e-08
4.0128064121994166e-08
2.3190866959229462e-08
7.742819818577809e-09
2.1865125464838193e-10
3.8742063947705825e-09
1.0585273199784188e-08
1.5571077253297804e-08
1.2883386006690904e-08
8.200504696521589e-09
2.3220538682117864e-09
5.593964516265803e-10
6.14011585399511e-09
1.8043495375396284e-08
3.2366299339945536e-08
3.914690086117718e-08
3.449953557531219e-08
2.2234215113331623e-08
8.562176870081381e-09
3.84052798079772e-09
9.379981250116851e-09
1.918513717830328e-08
2.284029189116952e-08
1.8297256285091475e-08
7.708310573926863e-09
1.4473056567216846e-09
7.683080281692136e-09
2.4406245329878423e-08
4.078257989172894e-08
4.4375688767418586e-08
4.3157000610015e-08
4.6787322228166023e-08
6.613361516892371e-08
9.136859878700449e-08
9.673881366744097e-08
7.691313454878183e-08
4.592761233007155e-08
2.390151074464307e-08
2.405453283201302e-08
3.940748183773974e-08
4.989254825289897e-08
4.417129931331842e-08
3.155299383219734e-08
2.847068314152934e-08
4.249226424304672e-08
6.923466989040036e-08
9.075181218016064e-08
9.556831608638907e-08
8.495656942203504e-08
6.607213632742378e-08
3.9918767543152225e-08
1.95077761002881e-08
1.7227585606010646e-08
3.238769666630441e-08
5.7466811757956405e-08
6.648126216812844e-08
4.9899473141754713e-08
2.003443921213025e-08
1.3644642487145776e-08
5.4518197181683815e-08
1.3154066857906758e-07
1.987700938244523e-07
2.095988659993636e-07
1.5910295544479472e-07
8.612660406448087e-08
4.3692426958432797e-08
4.0486418457697426e-08
5.729419083297339e-08
5.630526669418084e-08
3.320814608804913e-08
1.1876348940359959e-08
1.544002591556962e-08
4.835762033707719e-08
8.361812063028862e-08
1.0716228644268326e-07
1.0161817288618206e-07
9.117814593576228e-08
7.137766711347904e-08
4.874848229880664e-08
2.1822742114116683e-08
1.585361876329497e-09
7.027005964003392e-09
3.5549285345918976e-08
6.947852392321377e-08
7.174024697293488e-08
4.780656810851993e-08
2.3274371784550006e-08
3.021034365880479e-08
6.428833913112499e-08
9.01236597849007e-08
7.871045755979669e-08
4.134144332450132e-08
1.0005556518755839e-08
1.583771287380828e-08
4.367001171763465e-08
5.617664312512634e-08
3.9101894391989505e-08
1.4700099424786791e-08
1.4758367480001455e-08
4.171124623530472e-08
6.778315189582253e-08
5.764350525952774e-08
2.4296997654778962e-08
7.646508365215618e-27
7.123611845016628e-28
6.15894597433284e-29
3.764822902023443e-30
3.73451613950195e-11
1.1674997115023895e-10
1.307721369095911e-10
5.4596863696829746e-11
3.6238408270211315e-12
3.6100734205318035e-11
1.9424917705386234e-10
3.506177864916004e-10
3.3461341665037614e-10
2.040306800796135e-10
5.574519156108514e-11
3.156576319075074e-12
5.445069793161954e-11
5.788716267363868e-11
1.9965604819868373e-11
6.178615302871367e-12
1.7200002021943567e-10
5.70033920946889e-10
7.882021413209412e-10
6.545219460225181e-10
3.190914994564921e-10
4.889572901273629e-11
3.811471472078361e-11
1.8477130228334078e-10
1.7517641067484289e-10
3.831661465740949e-11
9.321181949527124e-11
4.337924096396272e-10
7.459873522676452e-10
7.603689496033489e-10
3.882201337544697e-10
9.706937889438969e-11
2.452259191569682e-10
5.385536230282519e-10
5.989306675653538e-10
3.0751320757823063e-10
4.3607189140582826e-11
3.4183639780959215e-10
1.020930552339681e-09
1.6182906769193647e-09
1.7501418000676126e-09
1.3059345634817414e-09
7.687563722742035e-10
4.111354701614929e-10
2.0140470469559838e-10
1.7883273694907524e-11
1.9737993696059612e-10
9.395165484003483e-10
1.878874118678027e-09
2.441805424309827e-09
2.1287006814802687e-09
1.0984490829863579e-09
2.479592894489279e-10
1.3477644578888981e-11
2.8431850361131597e-10
4.4775062341565245e-10
2.172878889843638e-10
2.060145615225451e-13
3.4770028537469765e-10
1.5393806956542606e-09
2.7757253147627756e-09
3.163072841916978e-09
2.4286045270630164e-09
1.4048886639526759e-09
5.72293316035743e-10
3.80836252684674e-10
6.230050140660712e-10
9.172438963907469e-10
1.4703700973362729e-09
2.0808231509010603e-09
2.344870738717297e-09
1.9752497413335813e-09
1.3224992741413337e-09
6.510421927102114e-10
4.122724402656275e-10
5.055628718214139e-10
4.721827314549878e-10
3.4428071778608653e-10
3.815170780814708e-10
8.924361342724844e-10
1.6854939482154066e-09
2.3777954713219286e-09
2.2706885117756006e-09
1.8048314525145684e-09
1.6750482931008625e-09
1.9266540301030218e-09
2.530916586815791e-09
2.6175691258294457e-09
1.931878295650471e-09
1.2377855210396387e-09
4.93574197356746e-10
1.2276917069483508e-10
3.864986995655072e-11
7.683915471758527e-11
1.5500648226981702e-10
3.428568543382162e-10
7.479473562979423e-10
1.2195654434549871e-09
1.6076270096144723e-09
1.5374835284835949e-09
1.2220854851825374e-09
1.0438802229497561e-09
1.098799799480152e-09
1.1835880334823948e-09
1.2228629350742984e-09
1.1795786633068754e-09
1.047470528815139e-09
1.2424805076846888e-09
1.2506760541379587e-09
9.436934431974645e-10
7.173596348009321e-10
7.403348622082386e-10
1.3336130899398549e-09
2.2391962800861338e-09
2.6756080611490296e-09
2.724780273827351e-09
2.3541175762254497e-09
1.9399311518154727e-09
1.5371129994959527e-09
1.0451084799815946e-09
7.390765422847165e-10
7.953860821263188e-10
1.1209889859908222e-09
1.34316527767572e-09
1.4892170739602425e-09
1.602002109650361e-09
1.6071911846477165e-09
1.895651240017892e-09
2.0516143954183143e-09
1.905076708633194e-09
1.742544089202505e-09
1.370357808836914e-09
1.1553472512648883e-09
9.578793937575219e-10
6.218960456074669e-10
4.873609885867949e-10
5.50897337015368e-10
9.197298193934562e-10
1.6855233160758751e-09
2.4005171159705665e-09
3.0574832357004074e-09
3.149415643328156e-09
2.504416483962379e-09
1.48314773994381e-09
7.586639393751622e-10
5.548615344912388e-10
7.100988316263917e-10
9.86349374392138e-10
1.4483189739006494e-09
2.0144097136594735e-09
2.4199216083975386e-09
2.6656111201287836e-09
2.656647414924949e-09
2.4322750213343763e-09
1.9128359654336216e-09
1.2968827726113628e-09
7.033080629861543e-10
4.846280742861813e-10
8.793559660117686e-10
1.5924756499080954e-09
2.4909606577866507e-09
3.4773859418008804e-09
3.85835158170419e-09
3.778892680224665e-09
3.2628977530303035e-09
2.32569724226196e-09
1.5025712570061279e-09
6.779652114259623e-10
2.798265606477088e-10
7.011550336152029e-10
1.7073127883372563e-09
2.5407997414071023e-09
3.0281507562735855e-09
2.7722607771234396e-09
2.090222482901094e-09
1.6679228446413524e-09
1.3556519270291557e-09
9.424410063865294e-10
4.567948499265112e-10
1.6586569040984649e-10
6.557004913655935e-10
2.051537995250084e-09
3.6172134945993473e-09
4.363128859153024e-09
3.4392193599170678e-09
2.1349370244250846e-09
9.75958337975133e-10
3.625893180602947e-10
3.4530130592578526e-10
4.4835862650881333e-10
3.632141294322978e-10
4.801841158860899e-10
1.3388574121746404e-09
2.603724911625959e-09
3.702944734546894e-09
3.942037724034202e-09
2.8226540477184216e-09
1.2642757782151445e-09
1.497274490756432e-10
1.170217112488779e-10
8.568330435680788e-10
1.6120883668094293e-09
1.7027553243126906e-09
1.116030820405866e-09
5.623457135401377e-10
9.331331016721022e-10
2.4066295149488835e-09
3.7041803027479147e-09
3.9568303298945124e-09
2.316280000649965e-09
4.3386950512041205e-10
3.8762390615970094e-10
3.045007283653597e-09
6.253257472155283e-09
7.276982013978268e-09
4.700851551667721e-09
8.982158271392306e-10
3.850092326265375e-10
3.310608046235769e-09
5.455748091984219e-09
3.898236652612824e-09
7.299055100650024e-10
7.732708831290216e-10
5.572555424353111e-09
1.0564545996532445e-08
1.0707534661484507e-08
6.231655980264967e-09
2.8097116275198903e-09
3.5080692733939234e-09
6.812837596790526e-09
9.172039389447121e-09
7.006611138719533e-09
4.027346835731167e-09
2.604135259441203e-09
3.6645611309530914e-09
4.928200267815317e-09
6.0020530214919755e-09
7.59427956290566e-09
9.05193233961062e-09
1.0361741182637041e-08
9.23218053530942e-09
8.118344447006619e-09
9.46824777649135e-09
1.2765957851237388e-08
1.5374075100223112e-08
1.3574347975177425e-08
9.070097393585503e-09
5.5596273989022744e-09
4.591479362368293e-09
7.132076365753565e-09
9.706804825284904e-09
1.0004744029877602e-08
6.423147109045893e-09
3.448975613939505e-09
4.57927976268308e-09
1.0153308929064237e-08
1.5454037706343427e-08
1.4786812651086064e-08
8.291185674649038e-09
3.441628593646717e-09
6.670271573554087e-09
1.5721946739391345e-08
1.8060899545156608e-08
1.0934266848783916e-08
1.579484784558978e-09
2.534417747545491e-09
1.26611815363001e-08
1.9339496520447673e-08
1.3883580902412644e-08
2.4720979546485147e-09
2.565988709153891e-09
1.6017469444941243e-08
2.8497282891234363e-08
2.3887905240827972e-08
8.080150273497797e-09
6.8351418327466135e-31
2.491326702347892e-09
1.868899674098188e-08
5.602633849776001e-08
8.263133438956389e-08
7.588449447651915e-08
7.334127714440503e-08
8.718704114773308e-08
1.1437791545244227e-07
1.27374621163031e-07
1.1522628072339675e-07
9.617203563703056e-08
7.470186762158868e-08
3.4240935002481943e-08
3.4395653552255205e-09
1.4624852969091744e-08
9.728766920887984e-08
2.060744468717906e-07
2.9097288538157236e-07
2.533241585145289e-07
1.4640145210616376e-07
4.887958983288642e-08
1.3803218845433492e-09
2.4457448828909333e-08
6.682369271115653e-08
9.829853815934254e-08
8.133143201328801e-08
5.176890530590438e-08
1.4658876650562063e-08
3.531409712502089e-09
3.876189185619084e-08
1.1390664819357128e-07
2.0432497116219217e-07
2.4713018023897085e-07
2.1779186237812713e-07
1.403622117601383e-07
5.405210288918715e-08
2.424484061900809e-08
5.921481409728734e-08
1.211137102678145e-07
1.4418830935792476e-07
1.1550861355918131e-07
4.8661736678156704e-08
9.136685151013416e-09
4.8502460553347746e-08
1.5407400521227424e-07
2.574560462651685e-07
2.801389566497309e-07
2.724455092153537e-07
2.953633396459313e-07
4.174944089318487e-07
5.768001499400337e-07
6.107017396477498e-07
4.855443569131897e-07
2.8993608340353443e-07
1.5088766999088867e-07
1.518536819918485e-07
2.4877519995414877e-07
3.1496629799750897e-07
2.7884866798014155e-07
1.99190660851603e-07
1.7973236454256559e-07
2.682490999322069e-07
4.37071034294023e-07
5.729064423421105e-07
6.033125141455721e-07
5.363216972961882e-07
4.171062996091047e-07
2.52002891693535e-07
1.2315049512659464e-07
1.0875589745899708e-07
2.0446005018513836e-07
3.6278180992833056e-07
4.196890670959185e-07
3.1501001407703014e-07
1.2647526278103354e-07
8.613716240533212e-08
3.4416752282873116e-07
8.304021115229137e-07
1.2548142517628889e-06
1.3231751273489958e-06
1.0043998679501778e-06
5.437080003166716e-07
2.758255982410065e-07
2.5558641094380326e-07
3.61692072570695e-07
3.5544910070609883e-07
2.096394592574364e-07
7.497411518271103e-08
9.747122514092064e-08
3.052764629365922e-07
5.278722138410891e-07
6.765040036582903e-07
6.415046102876075e-07
5.755978415473098e-07
4.505995455769241e-07
3.0774393251721875e-07
1.3776462691376536e-07
1.0008219236323992e-08
4.436073385688343e-08
2.244188199228852e-07
4.3861045861000846e-07
4.528884732837712e-07
3.017977294080463e-07
1.4692860909888386e-07
1.9071465452545582e-07
4.0584537951240625e-07
5.689409837427537e-07
4.968906640253385e-07
2.6098409108689734e-07
6.316400357310391e-08
9.998178019141445e-08
2.7568409323354256e-07
3.546371139305392e-07
2.4684605923328226e-07
9.280014868255163e-08
9.316798865635793e-08
2.633186171410499e-07
4.279077571065848e-07
3.63897257024519e-07
1.5338433637402417e-07
4.8271585972941545e-26
4.4970596406963916e-27
3.8880764383277636e-28
2.3766922588438093e-29
2.357559925198915e-10
7.37030027372276e-10
8.25550453644028e-10
3.446641360890178e-10
2.287691789229783e-11
2.2790005733933199e-10
1.2262741897967245e-09
2.2134124251094696e-09
2.1123785573839324e-09
1.2880237677348146e-09
3.519134065503816e-10
1.992712724405516e-11
3.4374140731339235e-10
3.654354401077555e-10
1.2604071865641323e-10
3.900493474159397e-11
1.0858176525562532e-09
3.5985629137155613e-09
4.975835454769367e-09
4.13192674088078e-09
2.0143903613992253e-09
3.0867348520600193e-10
2.4061410000518133e-10
1.1664413844201882e-09
1.1058698643146707e-09
2.418886726183629e-10
5.884362042849106e-10
2.7384848869825675e-09
4.7093380259055345e-09
4.800127505111064e-09
2.4507920043879167e-09
6.127885624183766e-10
1.5480848871137546e-09
3.3998311743577544e-09
3.780984971223139e-09
1.9412978484342505e-09
2.7528750105259443e-10
2.157976461597852e-09
6.445024915405025e-09
1.0216095217456824e-08
1.1048457195328029e-08
8.24422462452471e-09
4.853076403511458e-09
2.595454061713646e-09
1.2714462672001974e-09
1.1289518593458447e-10
1.2460383408026953e-09
5.9310670534825025e-09
1.1861130495152958e-08
1.5414855361299686e-08
1.3438258751429029e-08
6.934391072856638e-09
1.5653403601665851e-09
8.508292254830266e-11
1.7948721737107159e-09
2.826601591252869e-09
1.3717151035500017e-09
1.3005477981887977e-12
2.194994553936874e-09
9.717944981711375e-09
1.7522855762293185e-08
1.996813909494316e-08
1.533151951493245e-08
8.868911231811657e-09
3.6128262322224223e-09
2.4041783563212974e-09
3.932963734777265e-09
5.790462193724847e-09
9.282288487185733e-09
1.3136013043565838e-08
1.4802917103228097e-08
1.2469539448954212e-08
8.348795863648549e-09
4.109959431991959e-09
2.6026316318553427e-09
3.191564105634304e-09
2.9808388649719474e-09
2.1734071910569957e-09
2.4084763339215755e-09
5.633853456155747e-09
1.064034225062388e-08
1.5010767403607093e-08
1.4334612672702649e-08
1.1393707096829842e-08
1.0574399951888005e-08
1.216275994378119e-08
1.597740455847618e-08
1.6524432729634573e-08
1.2195740171026656e-08
7.814007039700964e-09
3.115880891481892e-09
7.750285875552503e-10
2.439924775257915e-10
4.850773301852635e-10
9.785392728122282e-10
2.164418494052457e-09
4.721711320818306e-09
7.698985646987641e-09
1.014877663118069e-08
9.705968369143947e-09
7.71489439972768e-09
6.589903720866675e-09
6.9366051084103475e-09
7.471864122282843e-09
7.719802357385912e-09
7.446553399024455e-09
6.612568936148249e-09
7.84364598608718e-09
7.895383590536017e-09
5.957435341682661e-09
4.5286143205356585e-09
4.673654463313085e-09
8.41895618901303e-09
1.413580559673144e-08
1.689082629415378e-08
1.7201245191042605e-08
1.4861291395183762e-08
1.22465769870125e-08
9.7036292594447e-09
6.597657575577533e-09
4.665710824796181e-09
5.021186901422957e-09
7.076683059438552e-09
8.479258124157577e-09
9.40126742619698e-09
1.0113267241896294e-08
1.0146025314978956e-08
1.196704266008563e-08
1.2951621307611955e-08
1.202654463103338e-08
1.1000493662731767e-08
8.650921652538804e-09
7.2935830975792205e-09
6.0469897238085985e-09
3.925962936016053e-09
3.0766575718984227e-09
3.477755714879419e-09
5.806155558619767e-09
1.0640527646772523e-08
1.5154206705667206e-08
1.9301563252625564e-08
1.9881922667216644e-08
1.5810112255625967e-08
9.362952372478411e-09
4.789363958681289e-09
3.502781267737075e-09
4.482777650001581e-09
6.226717653500481e-09
9.143082113520483e-09
1.2716752147945877e-08
1.5276705182058195e-08
1.6827716679297354e-08
1.6771129771166654e-08
1.535469095100766e-08
1.2075527985767133e-08
8.187081641042699e-09
4.439908256994604e-09
3.0594049774699794e-09
5.55127975890983e-09
1.0053127724811812e-08
1.5725167070313234e-08
2.195236393310429e-08
2.4357359097038916e-08
2.385574358694117e-08
2.0598323036278888e-08
1.4681876879593994e-08
9.485570949348843e-09
4.279921557254323e-09
1.7665150202758628e-09
4.42631641383977e-09
1.0778082244679594e-08
1.6039795851828918e-08
1.911639046070232e-08
1.750098450831347e-08
1.3195350016868827e-08
1.052941776113102e-08
8.55808500029366e-09
5.9495288426235944e-09
2.883696821745743e-09
1.0470922873768984e-09
4.139366771040176e-09
1.2951139001556313e-08
2.2835080254582715e-08
2.75439638297824e-08
2.171142240127012e-08
1.3477628114573502e-08
6.161120156735398e-09
2.2889874180009754e-09
2.1798500543581794e-09
2.830439849472378e-09
2.292931785079382e-09
3.031350745430421e-09
8.452063031971294e-09
1.6437035692420637e-08
2.337629236369655e-08
2.4885660724563924e-08
1.781911181267231e-08
7.981237187844108e-09
9.45213303295763e-10
7.387454934264845e-10
5.4090949687841446e-09
1.0176940699943378e-08
1.074931146382474e-08
7.0453826926736315e-09
3.5500280861724363e-09
5.890769039954139e-09
1.51927936238644e-08
2.3384092373033137e-08
2.4979044856437517e-08
1.4622426844834435e-08
2.7389715824716824e-09
2.4470280836249123e-09
1.9222803907437182e-08
3.947614273872192e-08
4.593880580962343e-08
2.9675970911720232e-08
5.670340036407656e-09
2.430521930460753e-09
2.0899512992565157e-08
3.444155168481292e-08
2.460914926549821e-08
4.607815083483923e-09
4.8815760256194305e-09
3.517894382739718e-08
6.669284410340552e-08
6.759551618636413e-08
3.93397748407058e-08
1.773740770414699e-08
2.214606450965339e-08
4.3008711959198766e-08
5.790209946659991e-08
4.423198351554181e-08
2.5424207983374017e-08
1.643962617410146e-08
2.3133980797118233e-08
3.1111198936485116e-08
3.78903160243824e-08
4.794187115402657e-08
5.714387656207615e-08
6.541255909721729e-08
5.828176406046991e-08
5.125023647581953e-08
5.977203119729107e-08
8.059012068125513e-08
9.705488472763256e-08
8.56934007018411e-08
5.725855059665126e-08
3.5097330591367883e-08
2.8985516028700256e-08
4.5024032017174106e-08
6.127801622212591e-08
6.315887441808773e-08
4.054863776800652e-08
2.177301258496237e-08
2.8908501266286718e-08
6.409674866880747e-08
9.755968007102305e-08
9.334755996602554e-08
5.23413645804802e-08
2.1726631635021664e-08
4.210870796799353e-08
9.925096101966235e-08
1.1401651884782894e-07
6.90268521307338e-08
9.9711177872545e-09
1.5999507010091557e-08
7.992867905942537e-08
1.2208816421452635e-07
8.764555495574915e-08
1.5606088851507302e-08
1.6198811099584354e-08
1.0111656411673104e-07
1.7990028590528668e-07
1.5080177990671607e-07
5.1009120761020373e-08
8.01979298522091e-09
8.778298926609648e-09
6.491321773872316e-08
1.84929645415213e-07
2.637533311346159e-07
2.1086197664604353e-07
1.8129113473178958e-07
2.22233974230457e-07
3.1063646057448676e-07
3.574211867739414e-07
3.264563969541355e-07
2.8894288559102854e-07
2.6184713443954357e-07
1.4372182992330864e-07
2.781252737577847e-08
2.8047057007490383e-08
2.783181848226021e-07
6.342640110188099e-07
9.31799588116136e-07
8.100904502060756e-07
4.4781423242208656e-07
1.3626750513122464e-07
2.2022130630281196e-10
9.491569798262934e-08
2.3947956338631444e-07
3.3555245894721146e-07
2.704551466752494e-07
1.7765885641345337e-07
5.5176471886690386e-08
6.063509176240449e-11
8.189040213991657e-08
3.0190931377950555e-07
6.067187506125035e-07
7.759184341128413e-07
7.037230714941071e-07
4.813675577478274e-07
2.0687632011817706e-07
1.2014332619558024e-07
2.51887077041362e-07
4.800372112956663e-07
5.675275384960044e-07
4.7437827876821917e-07
2.318783937875255e-07
6.407622345634918e-08
1.8900020347582018e-07
5.603531521752743e-07
9.321836928812305e-07
9.876273275723323e-07
9.330855321219194e-07
9.846994459383982e-07
1.436509074719274e-06
2.08203244951024e-06
2.2813056466591725e-06
1.8634139850611734e-06
1.1806480240609454e-06
6.842660733712838e-07
6.863434590816113e-07
1.0322720664559281e-06
1.2706276286788669e-06
1.129999114063595e-06
8.390368640734388e-07
7.582876021700437e-07
1.043240220583441e-06
1.6104187101001364e-06
2.020209367142733e-06
2.142566520208691e-06
1.9378856592512777e-06
1.641221640115685e-06
1.1318208305879354e-06
6.409038028613351e-07
5.177819731701054e-07
8.016292146040289e-07
1.3913036470345423e-06
1.684125746003644e-06
1.386706863067641e-06
6.671129755511495e-07
3.7407034691201996e-07
1.1249467192076819e-06
2.7353120069739426e-06
4.247744352006132e-06
4.552259931178678e-06
3.529622694308582e-06
1.978372165566767e-06
1.1412101371502937e-06
1.1433721159292819e-06
1.5710895297032187e-06
1.529800077026805e-06
9.57226355177203e-07
4.181493667707225e-07
4.3642569265874243e-07
1.1067455145300896e-06
1.7993306977546068e-06
2.2383253386678525e-06
2.1078465051825403e-06
1.979408656205975e-06
1.6846661275951848e-06
1.2849604927990564e-06
6.599682746284062e-07
9.513116714687573e-08
1.2638449085685803e-07
7.664588460945345e-07
1.586044250860215e-06
1.6469120766666901e-06
1.0743322280023815e-06
4.543197037665839e-07
6.156755858574724e-07
1.4667300455744884e-06
2.143785285803108e-06
1.8717217032068633e-06
9.380050155539533e-07
1.4879080077178878e-07
2.6808681870497775e-07
9.43615829415076e-07
1.2515802554231832e-06
8.518750569517247e-07
2.6109182317592584e-07
3.011152254292291e-07
1.0032671438620681e-06
1.6840480627294518e-06
1.4383987837810777e-06
6.071535691422022e-07
1.4075734004207912e-25
1.3115530057102666e-26
1.1623669922328667e-27
5.981307469618421e-29
1.1335010305498405e-09
3.58548439951317e-09
4.162951601625815e-09
1.8117278828075076e-09
1.0094096477820251e-10
9.509012804910248e-10
5.127728480152413e-09
9.013236627588805e-09
7.83249923138475e-09
3.988218966939678e-09
7.301226630266153e-10
4.017807573368718e-10
2.596920384502922e-09
2.4927710139292883e-09
7.668719234721912e-10
1.4450248104971603e-10
3.919609314432494e-09
1.3245756804151554e-08
1.7858081197470918e-08
1.334239687798168e-08
5.596580256273833e-09
4.092442583467411e-10
2.028373718609863e-09
6.286728337876853e-09
5.004973879524453e-09
8.864658928151538e-10
1.8013901973195158e-09
9.806127251971589e-09
1.769625660134392e-08
1.6803697451141698e-08
7.472605623722607e-09
1.3586792284103617e-09
6.161135683868142e-09
1.3738428455372302e-08
1.5314820906930522e-08
7.92333631159372e-09
9.372009189119903e-10
6.755861628355761e-09
2.0883023001656535e-08
3.2901425638604825e-08
3.35261488089202e-08
2.343034958600716e-08
1.346033089673854e-08
8.548933310904639e-09
5.246350562556903e-09
5.952499180190623e-10
2.62452903578764e-09
1.8063719584551517e-08
3.848611150051869e-08
5.016820179022183e-08
4.3751044866625455e-08
2.141913515891714e-08
3.7822136243925105e-09
9.45064538332215e-10
8.562326800057984e-09
1.2837012050231651e-08
6.750835747735311e-09
1.9036300379309329e-10
6.2027418695544874e-09
3.049790626909727e-08
5.581186320496839e-08
6.250952347950008e-08
4.607305571598292e-08
2.539362612739123e-08
8.433193533462897e-09
5.302630686546627e-09
1.0166386097465327e-08
1.5192262526708567e-08
2.5184924840481424e-08
3.664194209506997e-08
4.199198588632028e-08
3.550968802218249e-08
2.3990279889596358e-08
1.1194264937845739e-08
7.816194528368971e-09
1.0608533865638555e-08
9.051194079098063e-09
4.987973196800674e-09
4.8195908623983635e-09
1.5941909017732885e-08
3.359290459204587e-08
4.897268710563606e-08
4.636386991847824e-08
3.641786415022716e-08
3.275354485990898e-08
3.8084294152964575e-08
5.1676627123255824e-08
5.2753813680001154e-08
3.786111025302377e-08
2.2432077360707558e-08
7.134501293520515e-09
8.771228014540855e-10
5.23593448193663e-10
2.017934982296355e-09
3.862500326365024e-09
6.802613176079122e-09
1.3685908003138394e-08
2.251365825464643e-08
2.8607435030552143e-08
2.742309014169102e-08
2.193937700429953e-08
1.905985195218826e-08
2.0990795972585805e-08
2.157894946962116e-08
2.143121238086568e-08
2.023796138866951e-08
1.791910961960936e-08
2.23135527005136e-08
2.1317762436998128e-08
1.59523077086394e-08
1.1497747824710438e-08
1.1425724473403964e-08
2.293282390370161e-08
4.229638271939434e-08
5.250070793208266e-08
5.321376979461057e-08
4.598331588606527e-08
3.667852449212388e-08
2.6479819108651677e-08
1.7170452403521625e-08
1.0472895380157416e-08
1.0668389844515104e-08
1.6878491542041074e-08
2.013765055762372e-08
2.4028777303831924e-08
2.810108613513779e-08
2.9943260813306804e-08
3.814845024981812e-08
4.086111985819409e-08
3.7324254448014703e-08
3.3633642491719315e-08
2.4640288461045152e-08
1.818536781497351e-08
1.3057277493458996e-08
7.431707126842724e-09
5.4698545347725375e-09
8.371457602805254e-09
1.821139448821743e-08
3.532774899203749e-08
5.166258352092595e-08
6.627240559781527e-08
6.673689170152986e-08
5.1795945913894845e-08
2.721793441231455e-08
1.107536174464066e-08
5.630489040192495e-09
9.480593413623837e-09
1.7190609437607432e-08
2.8250783737608542e-08
4.0918662352617575e-08
5.0876441094490856e-08
5.6704006301754314e-08
5.778835488081584e-08
5.156285278674417e-08
3.898703786461434e-08
2.5397128889663874e-08
1.0348477189563826e-08
4.561805963028487e-09
1.2907322799472244e-08
3.00353954378685e-08
5.4621439052092745e-08
7.89724460788231e-08
8.614960130178472e-08
8.424432570205101e-08
6.900351530246316e-08
4.807033335853096e-08
2.9031732795706353e-08
8.409779384948735e-09
1.6196637089372288e-09
1.2887361523851742e-08
3.7397777682114415e-08
5.6740119933510695e-08
6.992333822019179e-08
6.592849826789803e-08
4.8389922195200536e-08
3.598070245334341e-08
2.991355672750827e-08
1.88418698454116e-08
6.774602388823281e-09
6.614592328616933e-10
1.2957039482013842e-08
4.562749195962589e-08
8.253216271343287e-08
1.0395057365485238e-07
8.339061213721536e-08
5.272366649731252e-08
2.186671202836659e-08
4.477895784200418e-09
1.8448739680158542e-09
4.1209079880036665e-09
5.062969965859664e-09
1.1080644043940832e-08
3.020712998730811e-08
5.840044728523848e-08
8.587292600094669e-08
9.197847363710073e-08
7.141311645300547e-08
3.668876201587311e-08
8.572368869719518e-09
3.505809928558064e-09
1.6856109158508707e-08
3.445939578570585e-08
4.038661500854511e-08
2.856712826901643e-08
1.4641330846680593e-08
1.8424842694618706e-08
4.9966183970631076e-08
8.32411066502415e-08
9.73322665051323e-08
6.215373101633726e-08
1.7705694623710492e-08
1.2272551715755039e-08
7.421708679829686e-08
1.5979946106808244e-07
2.005976594348826e-07
1.353791839196548e-07
3.168076845302466e-08
3.2315359826852194e-09
6.654372552785662e-08
1.1974584918423766e-07
8.986799352862362e-08
1.7976359313018382e-08
2.147570634223774e-08
1.4078196730310487e-07
2.5865223215652745e-07
2.6148025824388103e-07
1.6473020609648833e-07
9.277657571706325e-08
1.1458111590950955e-07
1.863958166132926e-07
2.3730190761117254e-07
1.745298492432678e-07
1.0554747210800576e-07
7.498735501779379e-08
1.008497273979796e-07
1.1713719896565103e-07
1.3594094462230488e-07
1.737526248710354e-07
2.2438923586183815e-07
2.642734301768088e-07
2.442812429586797e-07
2.1613636437446558e-07
2.527583825038285e-07
3.377259572191307e-07
4.0080637097187027e-07
3.494150444890977e-07
2.457585024910231e-07
1.6017739808799606e-07
1.304298047196212e-07
1.8356530386674754e-07
2.4817311287667083e-07
2.54694720669713e-07
1.6665421332113725e-07
9.556756364796616e-08
1.2239018988649788e-07
2.5757229738166115e-07
3.971816880082866e-07
3.977633014231229e-07
2.2747044844791359e-07
9.312088862912568e-08
1.7065834218987682e-07
4.148437936842112e-07
4.797958802863845e-07
3.0086038750349685e-07
4.919237083563002e-08
6.272053652150252e-08
3.180276162808015e-07
4.997828447140603e-07
3.663089028255592e-07
6.435332537701051e-08
5.9044232343317836e-08
4.0552882938622097e-07
7.342926379300045e-07
6.149608766052723e-07
2.0907498711826612e-07
3.226414177702654e-08
1.4853379769041362e-08
1.0950500502769553e-07
2.943329153192315e-07
3.820174022467388e-07
2.3283741400325295e-07
1.4919065890472222e-07
2.2302696696262336e-07
3.8391228838808343e-07
4.439436997245679e-07
3.9971480449831476e-07
4.0435648525929644e-07
4.801931210906949e-07
3.5118412074177297e-07
1.3498345976035277e-07
2.9731847462618795e-08
3.494598114062922e-07
9.008137585535118e-07
1.406411064073805e-06
1.2145800144742585e-06
6.298688229849635e-07
1.7133618934067384e-07
3.332356271581008e-08
2.3812809056467913e-07
4.548398075689947e-07
5.694841591586175e-07
4.3710844661810043e-07
3.087275604814774e-07
1.5097752737626582e-07
4.252067551921646e-08
7.61910136323253e-08
3.4783286957865436e-07
7.924639537293545e-07
1.1073327337808467e-06
1.0627139015284729e-06
7.987441002444234e-07
4.1901096123095395e-07
3.227064193266887e-07
5.594024068018395e-07
9.618552862996759e-07
1.125317387594345e-06
9.964593059890865e-07
5.89475920183506e-07
2.50597988578431e-07
4.413322106041641e-07
1.063358918488165e-06
1.7075734872447055e-06
1.7587999719464412e-06
1.5895899103461373e-06
1.62743339653128e-06
2.4438553810151363e-06
3.702342854581671e-06
4.217263383769467e-06
3.5664848086551347e-06
2.4566584258045445e-06
1.6400654892121104e-06
1.680045172183159e-06
2.3083695382974153e-06
2.7073732933270798e-06
2.431331432041014e-06
1.9115487595853995e-06
1.766895560265517e-06
2.178721916472507e-06
2.9743477799360432e-06
3.5012813602133633e-06
3.645504493009074e-06
3.485296593549901e-06
3.3421967987092626e-06
2.699687579594183e-06
1.7994652229999507e-06
1.3510139065433105e-06
1.6393484517771775e-06
2.770849318943962e-06
3.5561745635203384e-06
3.2804554220510456e-06
1.9003466322556987e-06
9.972368787312659e-07
1.8114702564351818e-06
4.3414932977273705e-06
6.951746513248146e-06
7.656160521298155e-06
6.0844376393630404e-06
3.617135210875622e-06
2.484337976743805e-06
2.7107466264949333e-06
3.6100307813241416e-06
3.471655431001872e-06
2.28749489786271e-06
1.225900401822182e-06
1.1760916633813937e-06
2.2012104353457525e-06
3.1224123899444336e-06
3.5645195816981717e-06
3.1909154376129344e-06
3.2172189926414963e-06
3.192530509521409e-06
2.8528881040090208e-06
1.7429765972500526e-06
4.655056947328796e-07
2.595921879120698e-07
1.3805411185053503e-06
3.017531421280562e-06
3.1996657979377137e-06
2.0240000447355005e-06
7.052815565319601e-07
9.512871802300695e-07
2.637335351580253e-06
4.0796011577880445e-06
3.584874133982557e-06
1.7074339287909102e-06
1.432269028999334e-07
3.7666138331091644e-07
1.7515449765974828e-06
2.3865196200747155e-06
1.529075857029019e-06
3.332520504169203e-07
4.584378055447956e-07
1.980463943762625e-06
3.4365772517855926e-06
2.9714089579351297e-06
1.2523732470332207e-06
2.943614056259339e-25
2.758487277677677e-26
2.434597356560048e-27
2.4487995573389224e-28
3.2764831118661445e-09
9.93991352001459e-09
1.1232119274266448e-08
4.859833589335323e-09
2.907378845052192e-10
2.28004378193629e-09
1.1754834880051852e-08