# vtk DataFile Version 4.1 
COMMENT
ASCII
DATASET STRUCTURED_POINTS 
DIMENSIONS 400 400 1 
ORIGIN 0 0 0
SPACING 0.002506265664160401 0.002506265664160401 0 
POINT_DATA 160000
SCALARS U double 1
LOOKUP_TABLE default
1.223113166294887e-06
1.0043315076270307e-09
3.3757640194775255e-09
5.208262020710633e-09
5.31074746035918e-09
4.088581058521629e-09
2.4232991163476844e-09
1.1419414549559237e-09
3.053715503358577e-10
2.394339416065972e-10
1.3637045861505487e-09
4.051606969775981e-09
7.087640687420514e-09
8.59055871918e-09
9.019722325174539e-09
8.650836327176748e-09
1.0616275898971266e-08
1.5475966985597315e-08
2.0435395575749094e-08
2.265923062645119e-08
1.9132153735926965e-08
1.236896630594788e-08
5.483569953398859e-09
1.244800519571027e-09
2.512374068919176e-10
1.2495599965273764e-09
3.3647795567526653e-09
5.454828930796903e-09
6.439997096192621e-09
5.233360135478645e-09
3.004512125599073e-09
1.7864080710665687e-09
3.236974166294696e-09
5.975220588898532e-09
7.327446793110814e-09
6.933689638226907e-09
7.608924668793546e-09
1.275787409156561e-08
2.000423329700191e-08
2.329714040197715e-08
1.8422605724099355e-08
7.896641106873377e-09
5.566847961602564e-10
2.118107515879162e-09
9.951238144986103e-09
1.5692642476904314e-08
1.3032826339628854e-08
4.925586259103671e-09
3.9122357854331155e-11
4.420988956514083e-09
1.4157754967458772e-08
2.0650385174510244e-08
1.79236880947956e-08
8.959614150715037e-09
1.5182346761400647e-09
1.5814611868441215e-09
7.007927973417978e-09
1.1742812537967606e-08
1.1074718396347901e-08
6.630059303522452e-09
2.7292022260654425e-09
3.606799270117779e-09
7.4469850013673815e-09
9.859265290429495e-09
8.706079239256601e-09
5.335616786114768e-09
4.201694110263836e-09
7.375357732783004e-09
1.2785878796698532e-08
1.6242137369824115e-08
1.540395036202657e-08
1.0949484514181527e-08
5.805420337930752e-09
2.1587221413644296e-09
5.166415160422705e-10
4.766447345520556e-11
2.1854050068086416e-10
1.1200942569683706e-09
3.0959450948956015e-09
6.21042644638298e-09
9.519384461739976e-09
1.0935067000205187e-08
1.002820044969256e-08
6.960657913352927e-09
3.427402163995072e-09
1.4013165986978161e-09
7.360066888274565e-10
9.317057390554757e-10
1.1454815336321563e-09
1.408917395225022e-09
1.6674928382933076e-09
2.617143743973374e-09
4.216461695733059e-09
6.476975981123313e-09
9.055641862865659e-09
1.071809712242077e-08
1.0470927605476937e-08
9.45116625929386e-09
7.415383683731223e-09
5.72516304592003e-09
4.546294319110429e-09
3.8064276861432575e-09
3.311400357535359e-09
2.841834984897293e-09
2.321670569947657e-09
1.9741912341556616e-09
2.1167453227577358e-09
2.9616609295712736e-09
3.2588635653857914e-09
2.4940235801718934e-09
9.293812750181912e-10
1.1473662734719731e-10
9.38112496581877e-10
2.5091546417022187e-09
3.6389891655306074e-09
3.2403315988332715e-09
2.56275605621861e-09
1.8018121666395777e-09
1.0367943480877545e-09
3.9929342946530027e-10
1.2413433091254738e-28
1.1967337850374033e-29
4.598295359410988e-31
1.9712087485752313e-30
4.698993608916931e-12
7.322105290830159e-12
7.937576915929843e-12
1.0796653464780346e-11
1.5272770775336052e-11
1.2243960626358924e-11
7.545295434061226e-12
2.243163376590811e-11
3.320469550836009e-11
2.6837737113352256e-11
1.9014820275738897e-11
1.7581695483051188e-11
2.7395235096509536e-11
5.276156452406487e-11
8.574386369481249e-11
1.0672930086397907e-10
8.70382794824427e-11
5.789114566570014e-11
3.1892105809615955e-11
1.524655520023869e-11
1.1388562517750946e-11
2.818958499216206e-11
6.987579269329358e-11
1.05456628120465e-10
1.0416418366829658e-10
6.662449009041275e-11
4.0803672340496476e-11
4.148226290775827e-11
4.569169542839329e-11
5.4575927882661615e-11
6.792829202620261e-11
5.3180477303264363e-11
2.6941419102811543e-11
2.086546569260887e-11
4.5583830064307625e-11
1.3874104050877239e-10
2.7806044298546447e-10
3.7800677668599626e-10
2.715644888943412e-10
7.596935344403628e-11
1.9213003211060312e-11
1.6235675913649777e-10
2.635639900615374e-10
2.5546089373982727e-10
1.0953241208387952e-10
7.837351366399257e-11
3.465221815591255e-10
7.474530453429991e-10
8.686367097815974e-10
4.6034065384996646e-10
8.0079498942695e-11
6.067702577974683e-11
4.4281201310170944e-10
7.719609676769005e-10
7.369719925149436e-10
3.6087176256307796e-10
5.294428263277088e-11
1.1906759789275979e-10
4.819176684875462e-10
8.016318748543624e-10
9.147281918336026e-10
1.1567042233393845e-09
1.1826135059942112e-09
1.1281661518349015e-09
1.0352111172687214e-09
6.871289675134039e-10
7.417101401596729e-10
9.425570324645411e-10
9.746979653437426e-10
8.51386161933595e-10
5.422738825460097e-10
4.2904372252416964e-10
4.4519815665260866e-10
5.369312441615939e-10
4.204052523532594e-10
5.967291647005727e-10
1.6403159440092014e-09
2.8860640136734253e-09
3.4687248315887735e-09
2.8660707223954225e-09
1.6462093149549559e-09
1.1500206458818037e-09
2.1105026296385337e-09
3.196209166229915e-09
3.0516773856851183e-09
1.8753443330132286e-09
8.899198800021765e-10
1.2251734507463674e-09
1.9053143027816244e-09
1.5514804580595262e-09
6.160426974431645e-10
1.1163261642053607e-09
3.6579939147697144e-09
6.404346191707516e-09
6.577500873073768e-09
4.181224567516649e-09
1.9957125844638502e-09
2.404958859757254e-09
4.512635353095468e-09
5.75136241847024e-09
4.451680978489689e-09
2.3582519800054874e-09
1.5356995796024985e-09
2.2037921566444624e-09
2.3368467897297e-09
1.2107509426697463e-09
6.581144113964609e-10
2.8074084094433902e-09
6.527470218586949e-09
7.907419716790224e-09
5.991774852373472e-09
2.8781834740098354e-09
2.196830827528601e-09
4.346507863457877e-09
6.565083107836738e-09
6.361874739509209e-09
4.2762758593667045e-09
2.2837297099614977e-09
1.896176104487718e-09
1.831981720542957e-09
1.139628015214374e-09
8.242069984855611e-10
2.4328122431076812e-09
5.300102225054908e-09
6.7345568815253774e-09
5.3363944313646024e-09
3.110064882031719e-09
2.847072280229489e-09
4.936861468193949e-09
7.060676370661421e-09
6.998026930098551e-09
5.244701211593685e-09
3.744172636867326e-09
2.9188196041074414e-09
1.9435826166301354e-09
6.43250027864953e-10
4.2815262160106603e-10
2.302549157266836e-09
4.465766017543515e-09
4.7865387340976375e-09
2.9626605837932045e-09
1.6940363793143244e-09
2.9044950101503595e-09
6.1316654512618475e-09
8.316365626825691e-09
8.487965508823756e-09
7.151136893678352e-09
5.78948502493302e-09
4.326961647262509e-09
2.638770921443436e-09
1.1082293388072851e-09
8.321144420926854e-10
1.7996484709750843e-09
2.47594877178058e-09
1.7024695732264597e-09
3.736738559178223e-10
2.0792313175128454e-10
1.6074015205098158e-09
3.0403578315371387e-09
3.5493689314125624e-09
3.3539698511456295e-09
3.6382974919869382e-09
4.094898580098851e-09
3.555830006082242e-09
1.8248560526167117e-09
4.4689587368867317e-10
1.0029276083747395e-09
2.9854973859177357e-09
4.1522258587079e-09
3.292768802539197e-09
1.450692385895886e-09
4.1599102057408074e-10
7.919059281510477e-10
1.5258015291549831e-09
1.4707601315471412e-09
8.476160414711651e-10
4.700024893146474e-10
4.272332175113769e-10
4.271709680904846e-10
2.2874354285034668e-10
2.7519637629621717e-10
9.161524045944112e-10
1.8282537706063023e-09
2.1076486763075453e-09
1.608313269718646e-09
7.690496783461742e-10
3.3845985937181576e-10
4.758181863437285e-10
6.851222579943939e-10
5.721703006710215e-10
3.608689675348231e-10
1.5504702996277522e-10
5.733402767697778e-11
1.5272985201877555e-12
1.719872583443341e-10
7.754119684403711e-10
1.7881540016428755e-09
2.2945656920134535e-09
2.0914953390870254e-09
1.3831572572039072e-09
7.01957106026033e-10
5.295705618823682e-10
6.286126718207334e-10
6.79138741847181e-10
4.924977681208308e-10
2.510172539789635e-10
1.2191985816926955e-10
7.682323650057064e-11
9.975179572537239e-11
2.8583559250180427e-10
7.06088106000381e-10
1.1659406368726588e-09
1.2775545556839577e-09
1.0416496063034466e-09
7.057372933695917e-10
6.656164122176966e-10
1.0511491246115952e-09
1.6397890642367727e-09
1.9208104470840327e-09
1.6035028173090688e-09
1.2597416449564804e-09
1.1140267371185448e-09
1.0900386475005388e-09
1.0257059978820265e-09
7.888946464852119e-10
4.6081505709366306e-10
1.811125306555694e-10
5.3853988790840147e-11
1.8631533185939315e-10
5.935467728316969e-10
1.2742821458238219e-09
1.7830596874677416e-09
1.9410562842007858e-09
1.7085419446171569e-09
1.1239239913679706e-09
6.522457675187947e-10
6.260597413068982e-10
1.0559296836834153e-09
1.61115083420305e-09
1.870137295343695e-09
1.81090725819662e-09
1.5497249583596281e-09
1.1182965223549292e-09
8.115643625386542e-10
7.343898627166077e-10
8.384310541183939e-10
1.126283352294997e-09
1.361314836387501e-09
1.3422280509837645e-09
1.094696591684995e-09
7.927374003319051e-10
5.684629696031585e-10
6.555681678959921e-10
1.1756200288739713e-09
1.921517342494679e-09
2.4102636600961433e-09
2.1613697920344967e-09
1.3861639708474213e-09
5.814708212320788e-10
2.402331014951033e-10
5.681345362292904e-10
1.333244742806669e-09
2.0987756550854513e-09
2.5204857800887615e-09
2.283865939911392e-09
1.4331831581062494e-09
5.569881276958927e-10
8.728513039126064e-11
3.978451465610269e-10
1.3751737987297877e-09
2.4720158905936783e-09
3.0609980740492633e-09
2.6199778204534547e-09
1.4824922628175354e-09
4.096956952793888e-10
6.914337104642101e-31
8.896799923808999e-10
6.3402369290921666e-09
2.131083565302254e-08
3.287919870015734e-08
3.352617827235977e-08
2.5810773054480526e-08
1.5298027026958204e-08
7.208953745441493e-09
1.9277777963056135e-09
1.5115207549736602e-09
8.608920572364356e-09
2.5577359603737976e-08
4.4743514352840234e-08
5.4231274453958804e-08
5.6940538200725e-08
5.461180051862574e-08
6.701940942102249e-08
9.769811725545666e-08
1.2900645723651484e-07
1.430452890421452e-07
1.2077923148721893e-07
7.808395569801276e-08
3.4617188107485714e-08
7.858291971925509e-09
1.5860347634707806e-09
7.888338038719842e-09
2.1241491919717843e-08
3.443574911896754e-08
4.065500992695115e-08
3.303764040281657e-08
1.8967162324357353e-08
1.1277402268664742e-08
2.0434670217754887e-08
3.772092575958002e-08
4.625738453969893e-08
4.377163791567056e-08
4.803432413441771e-08
8.053908877475046e-08
1.2628457608334528e-07
1.4707234493504916e-07
1.1629993110344173e-07
4.985064710344482e-08
3.514291322811038e-09
1.3371385234836074e-08
6.282109751401112e-08
9.906596635824911e-08
8.22748327832466e-08
3.10946969802678e-08
2.4697524287299715e-10
2.7909228409479015e-08
8.937638637844547e-08
1.3036366348075262e-07
1.13150317700034e-07
5.656108175177928e-08
9.584452431881917e-09
9.983594602588726e-09
4.424029655154754e-08
7.413111421799316e-08
6.99135076641416e-08
4.1854852226616286e-08
1.7229160500545213e-08
2.276933637405674e-08
4.7012016408429734e-08
6.224048276230267e-08
5.49605430887626e-08
3.368317565455856e-08
2.6524843600283373e-08
4.655984115557752e-08
8.071587947017694e-08
1.025348685941944e-07
9.724348404639746e-08
6.912291961780933e-08
3.664899501402501e-08
1.362778100297379e-08
3.2615023966068835e-09
3.0090070112452767e-10
1.3796227066428578e-09
7.07103473122561e-09
1.9544368838409776e-08
3.9205755073643e-08
6.009485159850574e-08
6.903190340070937e-08
6.330695227684818e-08
4.394188573978983e-08
2.1636821712738523e-08
8.846361167545027e-09
4.6463311696635774e-09
5.881758253073096e-09
7.231301881873027e-09
8.894344179594677e-09
1.0526703177244217e-08
1.652174733966886e-08
2.6618069781115582e-08
4.0888453655494714e-08
5.71672943839331e-08
6.766219586770602e-08
6.610184125653203e-08
5.966419741400536e-08
4.681252068459435e-08
3.614233935026155e-08
2.8700267704087778e-08
2.40295691216795e-08
2.0904514768694693e-08
1.7940199008794843e-08
1.465645692979195e-08
1.2462857206837753e-08
1.3362785855978166e-08
1.8696647326622047e-08
2.0572855643004483e-08
1.5744502970332688e-08
5.867084161284062e-09
7.243200042035678e-10
5.922203425166328e-09
1.5840023736496437e-08
2.297254772617517e-08
2.0455865328738018e-08
1.6178403708833835e-08
1.1374646669412476e-08
6.5451713539800325e-09
2.5206965307912026e-09
7.8364669737331e-28
7.554851839821114e-29
2.902854468590209e-30
1.2444029095727097e-29
2.966424191870225e-11
4.622366420954953e-11
5.0109070468968143e-11
6.815811361902639e-11
9.6415361406052e-11
7.729480827003972e-11
4.7632639610178373e-11
1.4160849450846558e-10
2.096176761184976e-10
1.6942375166679838e-10
1.200385179562254e-10
1.1099135507664505e-10
1.7294317655177455e-10
3.3307808954688584e-10
5.412918014743599e-10
6.737706122083384e-10
5.494633093042032e-10
3.654605843088131e-10
2.0133143833991137e-10
9.624986529636366e-11
7.189477189152762e-11
1.779578221192886e-10
4.411183736835744e-10
6.657363658805081e-10
6.575773028796873e-10
4.20593249584716e-10
2.5758920062862867e-10
2.618730699901029e-10
2.884467653438515e-10
3.445319705429591e-10
4.2882401115969445e-10
3.3572264092517006e-10
1.7007828492943072e-10
1.3172144368900195e-10
2.87765822886553e-10
8.758572860994602e-10
1.7553657091786328e-09
2.3863161782649866e-09
1.7143574487532094e-09
4.795863681735699e-10
1.2128962553942713e-10
1.024940781154121e-09
1.6638511589816666e-09
1.612697182282993e-09
6.914663522481556e-10
4.947635734033812e-10
2.18755731109318e-09
4.718590788855318e-09
5.4836102457193986e-09
2.9060811010480315e-09
5.055332752223285e-10
3.8304754622822523e-10
2.795424674813357e-09
4.873306670072528e-09
4.652425028156231e-09
2.2781446746353436e-09
3.342315693407928e-10
7.516609560538834e-10
3.0422944767968175e-09
5.060615920033917e-09
5.774580821075713e-09
7.302149516528672e-09
7.465712034927153e-09
7.121991736489187e-09
6.535176587879512e-09
4.337771365125097e-09
4.682336445297354e-09
5.95026130279134e-09
6.153163559694206e-09
5.374709390093159e-09
3.423316773088024e-09
2.7085069352948174e-09
2.810488142746641e-09
3.389589270837605e-09
2.6539732009924115e-09
3.767087120108451e-09
1.0355138362788438e-08
1.821941211667282e-08
2.189768727465364e-08
1.8093196616380097e-08
1.0392342580542589e-08
7.2599568099440465e-09
1.332337640486488e-08
2.0177325151048934e-08
1.9264911545104525e-08
1.1838847337396996e-08
5.617968613226457e-09
7.734388394643582e-09
1.2028044537371656e-08
9.794329482100467e-09
3.88901137778223e-09
7.047247166355988e-09
2.3092522666758902e-08
4.042994959631785e-08
4.1523056500667985e-08
2.6395621575621448e-08
1.2598719179654182e-08
1.5182246957090227e-08
2.8487782267055803e-08
3.6307733175010084e-08
2.8102983847479795e-08
1.4887391442157214e-08
9.694706491477412e-09
1.3912303168317756e-08
1.4752262775148202e-08
7.643340650324996e-09
4.1546055889079355e-09
1.7722867735826296e-08
4.1207218352850185e-08
4.991869131008386e-08
3.7825431046749315e-08
1.8169663116251313e-08
1.3868357045348625e-08
2.7439037269274868e-08
4.14446644825597e-08
4.016183188058858e-08
2.6995670171298335e-08
1.4416940356052136e-08
1.1970356073106221e-08
1.156510382259329e-08
7.194349248847278e-09
5.20313025064924e-09
1.5358082374357762e-08
3.345897604532372e-08
4.251453421211951e-08
3.368808484549132e-08
1.96335055379472e-08
1.7973261491671844e-08
3.116587616414734e-08
4.457329151746622e-08
4.4177792328575694e-08
3.310923539814847e-08
2.3636559682620577e-08
1.8426194640696838e-08
1.226962829217159e-08
4.060768332305952e-09
2.702881510883351e-09
1.453574550543188e-08
2.8191901186106132e-08
3.021690489045763e-08
1.8702958036348935e-08
1.069426970058067e-08
1.833576501769763e-08
3.870854537142137e-08
5.250032291390978e-08
5.35836145368547e-08
4.514435908260919e-08
3.6548397094734827e-08
2.7315644105957013e-08
1.6658277387990957e-08
6.9961327773246405e-09
5.253049092776439e-09
1.1360987491092214e-08
1.5630398646433065e-08
1.0747507547910829e-08
2.358962914868805e-09
1.3125963970370108e-09
1.0147353142683527e-08
1.9193452415638942e-08
2.240678481459267e-08
2.117325140932674e-08
2.2968181265388934e-08
2.585065488961171e-08
2.2447572884977038e-08
1.152012024636638e-08
2.821205648037935e-09
6.331374263909894e-09
1.8847124315184923e-08
2.6212555841758703e-08
2.0786895763280664e-08
9.15806520851041e-09
2.6261066299176408e-09
4.999217063191882e-09
9.632221162184468e-09
9.284750731264087e-09
5.350909024574904e-09
2.9670752305269712e-09
2.697077411621367e-09
2.69668443771369e-09
1.4440334159164148e-09
1.7372851638082565e-09
5.7835717232553084e-09
1.1541569675074578e-08
1.3305359704038884e-08
1.0153108917504877e-08
4.854928013238834e-09
2.1366607371252917e-09
3.0037891011883746e-09
4.325103223478874e-09
3.6120496494384218e-09
2.2781270299221946e-09
9.78795246042512e-10
3.6194355828788826e-10
9.641671505777623e-12
1.085737088209532e-09
4.895092467208952e-09
1.128842414085681e-08
1.4485346746817589e-08
1.3203385421248931e-08
8.7317231952487e-09
4.431379810816099e-09
3.343122074243994e-09
3.968364275845447e-09
4.287329928750708e-09
3.1090855093383714e-09
1.5846449617786509e-09
7.696669688088127e-10
4.849768401910782e-10
6.297223717451381e-10
1.8044493929208511e-09
4.4574583699298336e-09
7.360458003050618e-09
8.065064683687473e-09
6.5758220775764074e-09
4.455243727473602e-09
4.201964914277763e-09
6.635791516281181e-09
1.035181222737899e-08
1.2125870031860822e-08
1.0122741048149764e-08
7.952613691608358e-09
7.03273113014596e-09
6.881296897027256e-09
6.47517179016751e-09
4.980207165487145e-09
2.9090759577682723e-09
1.1433439521347864e-09
3.399744466021474e-10
1.176188677284501e-09
3.746997022071439e-09
8.04440631174076e-09
1.1256264282666266e-08
1.2253679826906796e-08
1.0785841776246876e-08
7.095211433125888e-09
4.117557470478609e-09
3.952247899730285e-09
6.665970672205976e-09
1.0171022157302768e-08
1.180597586789431e-08
1.1432063005478321e-08
9.783247201059018e-09
7.0596858257115535e-09
5.1233186479036146e-09
4.63612432009441e-09
5.2929251860066195e-09
7.110105825231473e-09
8.593834338801133e-09
8.473341512721873e-09
6.910701998338593e-09
5.004466057758467e-09
3.5886456666236497e-09
4.138531427189884e-09
7.421562965059503e-09
1.2130332586658268e-08
1.5215735591823552e-08
1.3644495337261036e-08
8.750704255519188e-09
3.67076283674081e-09
1.5165657655094017e-09
3.5865723020125315e-09
8.416630853126606e-09
1.3249345274144256e-08
1.591155599601577e-08
1.4417800361092914e-08
9.047531334198294e-09
3.51620622221367e-09
5.510216525765014e-10
2.5115536763813643e-09
8.68132447943117e-09
1.5605570789943882e-08
1.9323752049581515e-08
1.6539638560070118e-08
9.358814415787194e-09
2.586364917533888e-09
4.246970416718041e-10
3.243029564266774e-09
2.362077578178333e-08
8.098009934084736e-08
1.1876023925322625e-07
1.1785068026049799e-07
7.929640878992172e-08
4.195460459211151e-08
1.5540892994039607e-08
3.213430174212699e-09
1.4202762027559737e-09
2.0480321756431565e-08
7.26528142514986e-08
1.319419416793844e-07
1.5683187153823853e-07
1.536794596502962e-07
1.3583523115643718e-07
1.8053740136827253e-07
2.949691935272082e-07
4.2009880368202305e-07
4.748010569487511e-07
3.9535439511436386e-07
2.4281051811797143e-07
9.694571658320311e-08
2.0163066653075446e-08
1.4425696284477108e-08
4.2397356137314404e-08
8.30394229410213e-08
1.1699722432540608e-07
1.3250362734663656e-07
1.005212737813184e-07
4.545640949374161e-08
1.9494432305802063e-08
5.958354528016845e-08
1.3774225429328247e-07
1.7801493652520853e-07
1.6542119006373212e-07
1.6324500711747008e-07
2.6533060645156754e-07
4.2070652590401667e-07
5.062606804392091e-07
4.0089089855357136e-07
1.6971089402886153e-07
9.65090624945219e-09
5.4876921268520026e-08
2.4529365875592177e-07
3.79170459498828e-07
3.0714984209211113e-07
1.1621345678793733e-07
4.189605199322427e-09
1.0981663006080651e-07
3.3564403751320867e-07
4.796082800668242e-07
4.0556588933030766e-07
1.9653359934539974e-07
3.3664506944646465e-08
4.7125096397092266e-08
1.7585294757018264e-07
2.7548601743824864e-07
2.423902983326822e-07
1.2412422683223468e-07
3.599672115816666e-08
6.318643979640964e-08
1.641901562022937e-07
2.2888880450966246e-07
2.010411988945201e-07
1.219647879840995e-07
9.233311278852942e-08
1.5809931772761226e-07
2.732701423250976e-07
3.347227986266189e-07
3.0475256900137233e-07
1.9905696340170453e-07
9.474756255346895e-08
2.8981133438792428e-08
4.641524123645165e-09
2.814402399485144e-10
1.691168393807158e-09
1.4387376089293437e-08
4.89274458587954e-08
1.1131919196559389e-07
1.8356801293332634e-07
2.2134728132907925e-07
2.1059787304529843e-07
1.470842247634287e-07
7.261714482547327e-08
3.035403449964174e-08
1.5978552197903114e-08
1.8679285925635536e-08
2.1469090659933117e-08
2.338449594800293e-08
2.6936708241108634e-08
4.410122988715807e-08
7.657902079974853e-08
1.2447053102478648e-07
1.817661422522982e-07
2.164497501880233e-07
2.130717770131292e-07
1.8833104149680556e-07
1.4871010619559764e-07
1.1693762079181907e-07
9.264355618367141e-08
7.684352377183224e-08
6.387402980655083e-08
5.0331263844051626e-08
3.7499179340673705e-08
2.793956673940442e-08
3.3561728366951434e-08
5.6200523210314084e-08
6.948089234396717e-08
5.5241063168855345e-08
2.077149851116752e-08
2.7039542656318744e-09
2.3027945787507732e-08
5.8622413038610657e-08
7.882796604395425e-08
6.44031090054682e-08
4.683982793983032e-08
3.19856943350719e-08
1.9937057219447877e-08
8.564625866446308e-09
1.8841895616268056e-27
1.789617471604784e-28
7.340865833250773e-30
2.2848390200979865e-29
1.0409935069262261e-10
8.820668453953788e-11
1.1746831327403262e-10
2.1902068480666603e-10
2.94584305884444e-10
1.9313314123785548e-10
2.159806994112984e-10
6.298012489513807e-10
8.306230000785153e-10
6.25883753029503e-10
4.403674683069662e-10
5.742440843089717e-10
8.08045207928662e-10
1.3307886012005498e-09
2.126789667475642e-09
2.5410218386615377e-09
2.032643654974007e-09
1.2359974298618786e-09
8.026765705376232e-10
5.672665129734548e-10
2.7982382986146826e-10
4.024087718010134e-10
1.0740126721893504e-09
1.8580557540737617e-09
2.151770662759354e-09
1.4259098610468464e-09
8.952157753032363e-10
9.225274916822278e-10
1.0265299220820434e-09
1.3336337670004315e-09
1.8570300221724315e-09
1.6938335448179734e-09
1.1167640032057108e-09
1.0892454919901154e-09
1.347329637095255e-09
3.08448056886221e-09
6.279955068147046e-09
9.11122772012751e-09
7.095985541708197e-09
2.287785222549388e-09
6.55798168090065e-10
4.089703909410236e-09
6.737879510660649e-09
7.1825459281848945e-09
3.633271739322872e-09
2.518034758238895e-09
8.44701994067844e-09
1.8514756867462977e-08
2.2485327031868186e-08
1.3264793004988963e-08
3.2868084732014158e-09
1.1825905438838794e-09
8.863407702422667e-09
1.6087978411014325e-08
1.591339939415997e-08
8.071933665935511e-09
1.446800309913891e-09
3.950554953246402e-09
1.3314401012416967e-08
2.1807424879901383e-08
2.4406995960133005e-08
3.024438376884682e-08
3.2859089862940115e-08
3.413125320758024e-08
3.211198876886828e-08
2.2534459246314265e-08
2.157421497313651e-08
2.4821431524329067e-08
2.6328359175612315e-08
2.1695469828429024e-08
1.2876506070856038e-08
1.0050979916330724e-08
1.2292659550409022e-08
1.6023568411841868e-08
1.3753778558319693e-08
1.7151347533157283e-08
4.183991838253184e-08
7.652073187770146e-08
9.553884508644996e-08
8.055179721328025e-08
4.8959165766772425e-08
3.5527569593701146e-08
5.99898059605733e-08
8.591686836094358e-08
7.772952776666356e-08
4.50434831119235e-08
2.0440253397490898e-08
3.184893321864379e-08
5.258724183505053e-08
4.4943646567070064e-08
2.1039949496651163e-08
3.1668761987373095e-08
9.836877422076576e-08
1.7101247484207666e-07
1.7868245349367117e-07
1.2021363773660187e-07
6.304098631082085e-08
7.118215525629045e-08
1.2227232140757452e-07
1.4987198173728984e-07
1.1083425847351273e-07
5.327876091594027e-08
3.4155187820263166e-08
5.615973568642428e-08
6.297082966582759e-08
3.474953504238401e-08
2.1421159931967586e-08
7.697999084997329e-08
1.7636700299106461e-07
2.172297329252225e-07
1.7105866751842155e-07
9.169604282490895e-08
7.39232634736819e-08
1.2681843716159392e-07
1.7849382479176464e-07
1.6210165417593162e-07
1.0244193394181291e-07
5.315701396518039e-08
4.697835422843244e-08
4.692581301900624e-08
2.8719715032530767e-08
2.1380922030114645e-08
6.42827747173695e-08
1.3980294852863945e-07
1.7896488814796314e-07
1.4667464662458743e-07
9.531313347452518e-08
9.311668625331923e-08
1.4681306696412629e-07
1.9451648484097335e-07
1.8307958646140016e-07
1.2987302903117726e-07
9.060484856948295e-08
7.36412365959383e-08
5.2322279169346056e-08
1.7927241472770916e-08
8.231178363557127e-09
5.307974608219368e-08
1.0865150253726952e-07
1.2109856866501143e-07
7.864863645667385e-08
5.2940175984407976e-08
8.882599230331494e-08
1.6859070360259995e-07
2.1346954417651974e-07
2.0934273043559662e-07
1.7189831553136426e-07
1.439520024252938e-07
1.1466005988977975e-07
7.252418294430423e-08
2.8915314845015287e-08
1.6105728068240718e-08
3.614396443612068e-08
5.2357476065537013e-08
3.4727460468728364e-08
7.283171806950825e-09
1.0126446741096117e-08
4.858445278132243e-08
8.275638672309673e-08
9.095303767303551e-08
8.399968102118421e-08
9.435927351989439e-08
1.099958171434735e-07
1.0049465538165001e-07
5.587411279754137e-08
1.3849812258543059e-08
1.7678926879658878e-08
5.795653037481455e-08
8.339558994658231e-08
6.633376134618341e-08
2.7474918330958358e-08
8.500713040127316e-09
2.0960564694516815e-08
3.8635810264308745e-08
3.459430025507787e-08
1.9287239134514843e-08
1.3351972377314465e-08
1.770309775590965e-08
1.975550390859372e-08
1.1156588444245523e-08
6.8666484793696176e-09
1.9241985936556352e-08
3.9978991204988184e-08
4.71532484473594e-08
3.646871211875793e-08
1.7241404011054936e-08
7.283326191985152e-09
9.724457238622497e-09
1.305601829627085e-08
9.905243407261016e-09
5.352704126592799e-09
2.724468847154115e-09
2.673446549141129e-09
8.682174456823054e-10
3.4887349363583133e-09
1.6650333152916116e-08
4.174268200641845e-08
5.5601481289626975e-08
5.130608976404348e-08
3.2615402638606654e-08
1.3709367719639316e-08
9.450766869597417e-09
1.292470101519976e-08
1.473689858423848e-08
1.0781245799542613e-08
5.1766798058323234e-09
2.332465876478279e-09
1.1818655772692038e-09
1.2394829479002476e-09
5.485187423411199e-09
1.6547079747268223e-08
2.9242082919061646e-08
3.2608888215691714e-08
2.559737990293498e-08
1.541763660065729e-08
1.1920417852069197e-08
2.0854325011022165e-08
3.5232267905725035e-08
4.149232608251627e-08
3.36509587557231e-08
2.5393803375255642e-08
2.1372848629285695e-08
1.9605281598990224e-08
1.8445946780078564e-08
1.414182861385679e-08
8.219261528952077e-09
3.384948733023364e-09
4.740138723381649e-10
2.571553733863901e-09
1.029612094341584e-08
2.4140795947722594e-08
3.507185218774608e-08
3.9401394230572946e-08
3.476569900529877e-08
2.2080636851449004e-08
1.2082917113825414e-08
1.1036319648700854e-08
1.9358177450506094e-08
3.065352461215435e-08
3.5418785517343175e-08
3.2882402439404177e-08
2.6887170657337426e-08
1.9202842527766747e-08
1.3980752333868268e-08
1.2996678402942777e-08
1.5566471685121057e-08
2.1292209675299664e-08
2.5235911974342095e-08
2.4451917339065664e-08
2.017355916087313e-08
1.4226406676282269e-08
1.0003289696257057e-08
1.2661566459063824e-08
2.4050941495098456e-08
3.95817004471356e-08
4.9310966343820745e-08
4.445110368183252e-08
2.8781779365421427e-08
1.2290543126419405e-08
5.314512693827805e-09
1.1598897669500558e-08
2.6002832238035463e-08
4.094945590607108e-08
4.9649878395019736e-08
4.531475498471684e-08
2.9403204025724573e-08
1.2624295882070461e-08
2.4545924974961237e-09
6.9061515327336125e-09
2.521167886817831e-08
4.6929853540361294e-08
5.902129357318997e-08
5.0640208746405455e-08
2.876218027225277e-08
8.066116611742165e-09
1.3890907477274857e-09
6.1378542229583424e-09
4.253213161197082e-08
1.4282694816699083e-07
1.9646983611521435e-07
1.7757981497270065e-07
1.009105130864957e-07
4.0752101310524445e-08
1.635257367775289e-08
1.1328619212372896e-08
3.925809435189232e-09
1.750485825223284e-08
8.436130305903894e-08
1.7826316879601426e-07
2.1585248943921506e-07
1.9297276511072673e-07
1.3280716229523133e-07
1.834531124985146e-07
3.7161241882674695e-07
5.916379855997782e-07
6.862545951734423e-07
5.57098040971031e-07
3.1134187738064884e-07
1.0658937121894015e-07
3.6472350780488176e-08
6.642948355826875e-08
1.0867092611437461e-07
1.426796649542244e-07
1.6451027524724918e-07
1.839255606140975e-07
1.381875943828272e-07
5.124758845812551e-08
4.595334802818451e-09
8.171322650663773e-08
2.412535621576582e-07
3.276647224157134e-07
2.955147632051311e-07
2.44103278607205e-07
3.7195065227809995e-07
6.267519342978044e-07
8.028853463972436e-07
6.684804676084058e-07
3.0325653383051273e-07
3.1260345568417775e-08
1.0621892701461379e-07
4.3877023960577237e-07
6.7162289195811e-07
5.483048204520176e-07
2.1664854861616993e-07
2.040959109025049e-08
1.9816266369148773e-07
5.808339698322989e-07
8.189802870901323e-07
6.777716171072484e-07
3.188099094347011e-07
5.938462853355673e-08
1.0337315884433393e-07
3.2742930547556345e-07
4.756447465670698e-07
3.858590551531613e-07
1.6644381191641673e-07
1.7676020364247413e-08
8.094598449245407e-08
2.7286306558082513e-07
3.919055600161969e-07
3.4145343911602616e-07
1.9849384197318586e-07
1.3761051953953357e-07
2.345704178563356e-07
4.022035273227327e-07
4.775512315725351e-07
4.0628198850364015e-07
2.3498783112619564e-07
8.902006249394497e-08
1.7932323002755952e-08
2.8319199658691295e-09
4.848992512453601e-09
3.562144227975305e-10
6.510248956832797e-09
4.588815026056892e-08
1.348707525043801e-07
2.5153264717341326e-07
3.209767189931216e-07
3.155456129197219e-07
2.1659691802546164e-07
9.908930644768316e-08
3.4842833343495954e-08
1.7670172051023988e-08
2.2330395721617883e-08
2.1641774673913687e-08
1.9301332763073435e-08
2.2139291319934122e-08
4.721362942392621e-08
9.536626204272015e-08
1.7269214247358166e-07
2.607326389507027e-07
3.104441824660543e-07
2.9967213351337305e-07
2.60721691576256e-07
2.076360505254314e-07
1.704734171205742e-07
1.4131983943098698e-07
1.1231180692209e-07
8.448584626541344e-08
6.008562017999319e-08
3.620765976185514e-08
1.764612108469987e-08
2.8757021679991834e-08
7.285257678551532e-08
1.0616734489214264e-07
8.852848836249156e-08
3.1552630511533314e-08
5.014747948943843e-09
4.6874472762938555e-08
1.080893612447772e-07
1.3328941706367192e-07
9.455433921275612e-08
6.229254059398784e-08
4.585354893278927e-08
3.4714070025426835e-08
1.6238694165947008e-08
3.7675595536750345e-27
3.5120505030450837e-28
1.2026042659884638e-29
5.988745232876697e-29
1.839933140106226e-10
1.8885518572783153e-10
1.6302904050476383e-10
3.6984103385838637e-10
5.714146338875797e-10