# vtk DataFile Version 4.1 
COMMENT
ASCII
DATASET STRUCTURED_POINTS 
DIMENSIONS 400 400 1 
ORIGIN 0 0 0
SPACING 0.002506265664160401 0.002506265664160401 0 
POINT_DATA 160000
SCALARS U double 1
LOOKUP_TABLE default
1.2692647665185398e-06
1.679175307903129e-09
6.1511122234725876e-09
1.0582344037447522e-08
1.2167609370279586e-08
1.1130608535829204e-08
7.820278256976246e-09
4.512566078153763e-09
2.8687470124700475e-09
1.608759053306971e-09
1.4710860737457265e-09
1.1852557894059827e-09
7.311092433126002e-10
1.9733437379110253e-10
1.2565265449640287e-11
4.95689909552599e-10
1.791121648124952e-09
3.2789351188344124e-09
5.653786131266929e-09
8.993202643773849e-09
1.2434394128712545e-08
1.5581754660912304e-08
1.7251844890042893e-08
1.5103846609078468e-08
1.1706172522772601e-08
7.523991781093431e-09
3.8626531710135696e-09
2.293890759119347e-09
1.922839978832125e-09
1.9682808899808696e-09
2.3371450792825725e-09
3.0419387025502453e-09
4.749000778720292e-09
7.4350202050262645e-09
9.803035083185645e-09
1.0856060105964355e-08
1.0613619122908182e-08
1.0090080305196247e-08
1.0058160284414514e-08
9.69576424962569e-09
9.256913193131643e-09
6.94434630882121e-09
5.450395534100795e-09
5.705640143300108e-09
6.932877873711937e-09
7.739262207830902e-09
6.8005652046030164e-09
4.101438814813962e-09
2.130098345939415e-09
1.8712226944574305e-09
3.405264554956296e-09
5.672640492405251e-09
7.255898027101939e-09
6.288874905282252e-09
4.473845277695516e-09
2.4047639958553093e-09
1.837787155336858e-09
3.084917842048191e-09
5.137584739972267e-09
6.181721494914939e-09
6.103146074213779e-09
6.160762133024196e-09
8.137179775191258e-09
1.1587780921245834e-08
1.4641163996029182e-08
1.4154298505495318e-08
1.2181089859877112e-08
8.27094390904863e-09
6.260954844268848e-09
4.596639066959352e-09
2.8569642789955687e-09
1.4418542211502922e-09
3.3501894895399266e-10
5.805042248713518e-10
1.6691270614453674e-09
2.3199874126602275e-09
2.1980531978622428e-09
1.7587823038912672e-09
1.8926068945220977e-09
2.168092049746704e-09
2.614460170117796e-09
2.7861267458204813e-09
3.7001269192010722e-09
6.46522432512102e-09
1.0397052792541793e-08
1.3202284527867385e-08
1.3733672293998635e-08
1.1291093698053978e-08
6.70414378184344e-09
3.4869882733773327e-09
1.694667905340009e-09
2.051464509047162e-09
2.512241590731296e-09
3.0119393750082276e-09
2.8782906620551567e-09
2.325248528648644e-09
1.995602859139516e-09
2.142182231656676e-09
1.8181340244251436e-09
1.386421191627688e-09
7.116529498365171e-10
6.193429009803279e-10
2.239130772711519e-09
5.7624031261325406e-09
8.864620409040487e-09
1.0422802915737652e-08
8.738494717600072e-09
5.1667479554330066e-09
2.2175650299144437e-09
1.5574206930608422e-09
2.93321885260315e-09
4.41691464366832e-09
4.5225578972946155e-09
2.928356406723751e-09
1.8126556049329212e-09
1.7314162407075364e-09
3.075888899278055e-09
3.560306050929731e-09
2.9818060874980113e-09
1.1214707370537171e-09
3.3475340203344716e-28
3.7111312029572587e-29
3.996006299318866e-30
3.3011703528644797e-29
1.157568559647574e-10
2.7206189599650687e-10
3.784897601191188e-10
3.520567133892139e-10
3.304510037192658e-10
3.7889327315616906e-10
3.6307316404227065e-10
2.402099204000438e-10
8.972166018365446e-11
1.225790732058593e-10
3.256795378838209e-10
5.255401954896589e-10
4.730183548010503e-10
2.0874560137667224e-10
8.505611810573847e-11
2.414995967399434e-10
6.295508889760724e-10
8.805293465543506e-10
7.281068720598047e-10
2.5936845903673563e-10
3.0398346324477067e-12
2.538551314545268e-10
6.499299127087031e-10
8.112086176912411e-10
7.879257151992982e-10
9.026388392264715e-10
1.0621405926353413e-09
1.0804833129249704e-09
6.863244925803939e-10
1.6829766873111103e-10
1.841869571821042e-10
8.552423811443991e-10
1.7115348553803904e-09
1.798009318032818e-09
1.0160716441378027e-09
1.9063257257042254e-10
2.8194186656935104e-10
1.2188468359498877e-09
2.0222587817655524e-09
1.6542309031684924e-09
5.725009396221293e-10
8.39705221052869e-12
6.222678911382405e-10
1.8081583375640848e-09
2.4548862558133923e-09
2.2946244621798956e-09
1.8056819878217413e-09
1.928896229341693e-09
2.557320661278144e-09
2.5242778356220074e-09
1.6925240405696556e-09
1.2472731567215989e-09
2.3301165734041547e-09
3.999993731932264e-09
4.416378483431147e-09
2.9704135438683738e-09
9.014785008270014e-10
1.2433570338851144e-11
5.420468579197331e-10
1.2544715721492364e-09
1.2173798371882213e-09
7.400875716391952e-10
4.3534772478645717e-10
5.855731709671108e-10
9.277363570030109e-10
1.0368170537056403e-09
6.577594289474841e-10
4.454554260422151e-10
5.844702066913174e-10
8.275009905875179e-10
8.323077195451804e-10
8.091289896638507e-10
1.4263939768586743e-09
2.6062930326186703e-09
3.2183788528111008e-09
2.540143639462343e-09
1.0191863686550873e-09
3.3078445341403e-10
1.8103547993480873e-09
4.574753859983376e-09
6.2549730357026034e-09
5.0985447976907925e-09
2.3007050652239044e-09
3.1364031136438065e-10
6.593242748948887e-10
2.3937039545377653e-09
3.4135475492457073e-09
3.019132405863645e-09
1.4583738798516418e-09
4.5486764516463045e-10
3.7223983692959956e-10
5.510607449787456e-10
5.397801061335084e-10
3.855734300091891e-10
3.987739065817842e-10
5.318299484987902e-10
6.815330597727042e-10
5.4951448421623e-10
3.174972886014946e-10
1.1031448083279403e-10
7.297190968619665e-11
3.2298348633270503e-10
8.33078648851994e-10
1.2180728124267868e-09
1.2835560006268892e-09
8.363841856186364e-10
2.2852515534242523e-10
5.8958106943827e-11
6.21693222902545e-10
1.4863615392548586e-09
2.0064856709580465e-09
1.722061967142793e-09
8.464839320188467e-10
1.053708062873985e-10
1.0558561891654534e-10
7.212230937670927e-10
1.3996726057678996e-09
1.4448138090442696e-09
1.1332494794888652e-09
5.354995328057522e-10
1.1044484495488197e-10
1.5890944576821183e-11
2.0542423013942695e-10
4.0662832132901437e-10
4.457683333705148e-10
2.9454063539152747e-10
8.010096943956726e-11
7.823644449982323e-11
2.1482048845806764e-10
3.0741539320911646e-10
1.8197524130159167e-10
3.179337525993476e-11
1.924753582584036e-11
1.5233932165298493e-10
2.4273623652851356e-10
1.4588087693062338e-10
1.0280523651981313e-11
7.37539270118704e-11
3.6989159697473823e-10
6.636279399163535e-10
6.829592473171228e-10
4.953559505801696e-10
2.021295391296122e-10
1.2740614955096226e-11
1.2448374978018632e-10
4.432010351127257e-10
6.623290665878098e-10
6.087299405253826e-10
3.214897352464182e-10
3.3423178118721516e-11
7.046841295519943e-11
4.0649969445314116e-10
7.982023565754642e-10
8.468859085684515e-10
6.17980613042239e-10
2.574424214616776e-10
6.533197299899238e-11
5.939036344694884e-11
2.030002999348869e-10
2.3293841432270865e-10
1.434608541647464e-10
5.114264819720978e-11
4.774061026406896e-11
1.5293613869000279e-10
3.5464757982823107e-10
4.4098652987594327e-10
3.8144555210090955e-10
1.9444496744615902e-10
6.152521394338755e-11
8.477369890903753e-12
3.175899678463214e-11
4.9966575965373984e-11
6.312318985166097e-11
5.0078254700645486e-11
4.8861108488208776e-11
6.236210271167291e-11
1.0713559959258739e-10
1.76242005993645e-10
2.5273458721329794e-10
3.08674640902002e-10
3.59849841259585e-10
3.4425313736959445e-10
2.809359470846809e-10
1.2656703206295744e-10
7.609901932113944e-11
1.907530708526361e-10
5.548552430341149e-10
7.01060369751868e-10
6.084555484189666e-10
3.7280967053592965e-10
1.1195877480939349e-10
7.227214150165993e-12
2.5956074928999704e-11
2.974531854154177e-11
2.980721440865927e-11
1.0587535859609099e-10
1.1639711900131854e-10
5.183159453136639e-11
3.0347288803800264e-11
2.8696788409848116e-10
8.213693687412015e-10
1.2755997692957972e-09
1.2442329106509457e-09
8.124990804830186e-10
2.9111184500995247e-10
6.153176246877829e-11
2.126172554465183e-10
4.825241773501033e-10
5.88559177007298e-10
5.392349767696458e-10
4.260841270780828e-10
3.9794538834344193e-10
3.409752407920103e-10
3.137093684481233e-10
1.9578266432119794e-10
1.5662745881028914e-10
1.395791194345202e-10
7.237064293618181e-11
2.7132961982528732e-11
3.478638414361596e-11
1.6197854886881355e-10
4.795302098461966e-10
9.365222258407167e-10
1.3956410807013028e-09
1.5236497194476942e-09
1.2313081598751696e-09
6.982641188672343e-10
2.2887311353755554e-10
6.744752280209438e-11
2.0422664167361546e-10
3.861611066860531e-10
4.688688147161795e-10
5.106029734478187e-10
4.055370739281238e-10
3.0616680589384364e-10
2.8893228584443286e-10
3.6239898208170684e-10
4.1457325248772744e-10
5.232327579532811e-10
5.352549531479779e-10
3.6902925435534967e-10
1.2873928647483466e-10
8.470889633659575e-11
4.1144005988183377e-10
1.165550782522448e-09
1.971208404952727e-09
2.0742320943612657e-09
1.6971002014911262e-09
8.955714670282219e-10
2.821561171751786e-10
4.648939894901175e-11
1.252765903681362e-10
2.2100482818419674e-10
2.520302919901058e-10
1.9828470429274732e-10
1.4699020719231075e-10
1.6440076262436152e-10
3.056223148268904e-10
5.071121282579272e-10
7.806579869103714e-10
9.975261244504538e-10
9.586754496758433e-10
7.0075162904194e-10
3.194020015428568e-10
1.5891662497807764e-10
4.165441668631672e-10
9.472987794035353e-10
1.3827885110622752e-09
1.551203330008448e-09
1.097582720414636e-09
5.779328509840736e-10
2.0577348574143328e-10
2.8786209832105983e-11
4.0040738855321985e-12
3.5843018586870494e-13
7.1752350580438025e-31
1.7054197479705149e-09
1.0600453353038453e-08
3.883131075554586e-08
6.680520122395616e-08
7.68128109915509e-08
7.026633611134299e-08
4.936857663442963e-08
2.8487344941789864e-08
1.811009174815207e-08
1.0155923101414891e-08
9.286808369353224e-09
7.482392486289298e-09
4.615414122179054e-09
1.2457507054077729e-09
7.932317110700494e-11
3.129237155318693e-09
1.130715857433347e-08
2.0699565203973912e-08
3.5691744554886186e-08
5.6773122300608824e-08
7.8496994515308e-08
9.836594348671741e-08
1.0890904371332302e-07
9.534896128916926e-08
7.389980973769189e-08
4.749815193728827e-08
2.438451456830114e-08
1.4481085967953868e-08
1.2138682247787842e-08
1.2425545838911834e-08
1.4754145845055225e-08
1.9203432284538122e-08
2.997993181023594e-08
4.693648393430647e-08
6.18855075038441e-08
6.853314136375789e-08
6.70026374791093e-08
6.369759315792375e-08
6.349608549536328e-08
6.120831825389395e-08
5.843789867268532e-08
4.38389123324643e-08
3.4407761561830746e-08
3.6019093363041305e-08
4.376651333348187e-08
4.885713101837591e-08
4.29312376655371e-08
2.5891942688860045e-08
1.344708205703187e-08
1.1812827875913028e-08
2.149706936475027e-08
3.5810770111543335e-08
4.5805704865173665e-08
3.970099176826659e-08
2.824290468762574e-08
1.5181016802208222e-08
1.1601752908866305e-08
1.9474754975657638e-08
3.24330206185357e-08
3.902454379831869e-08
3.85285056074772e-08
3.889222959801658e-08
5.13691418794845e-08
7.31524162740855e-08
9.242809565125347e-08
8.935456610534018e-08
7.689791187439628e-08
5.221358048847959e-08
3.952473542207473e-08
2.9018088689562743e-08
1.8035708617349918e-08
9.102270823807884e-09
2.1149386392571015e-09
3.6646608177408423e-09
1.0537019852465874e-08
1.4645831338629874e-08
1.3876073737966071e-08
1.1103003767861762e-08
1.1947824033973867e-08
1.368693222813834e-08
1.6504806226170114e-08
1.7588518879308494e-08
2.3358503798089204e-08
4.0814266713436326e-08
6.563547749760958e-08
8.334460412353397e-08
8.669919801300927e-08
7.127946170222779e-08
4.232253958059871e-08
2.201298242092834e-08
1.0698256456546525e-08
1.2950675091050657e-08
1.5859511314137634e-08
1.9014049752092005e-08
1.8170339782868017e-08
1.4679044198750934e-08
1.2598026495467618e-08
1.352336632959495e-08
1.1477684804428216e-08
8.752328062676077e-09
4.492588631329145e-09
3.909845208226604e-09
1.4135392055711858e-08
3.6377431976563387e-08
5.59613964641787e-08
6.579803525943944e-08
5.516517852169157e-08
3.2617124865222245e-08
1.3999249837881435e-08
9.831829547603551e-09
1.851709554977951e-08
2.7883507710119093e-08
2.855042222277185e-08
1.8486399451234203e-08
1.1443100130628909e-08
1.093024475046191e-08
1.9417756229778264e-08
2.2475829675312513e-08
1.8823821544755737e-08
7.079724302152137e-09
2.113262270070968e-27
2.342797265943563e-28
2.5226358543393464e-29
2.0839933848045958e-28
7.307605978801062e-10
1.7174975263610456e-09
2.3893652007994474e-09
2.222496216054224e-09
2.086101691648325e-09
2.3919125352596802e-09
2.2920418857136984e-09
1.5164194257462495e-09
5.664032034401882e-10
7.73828522526344e-10
2.055979940348032e-09
3.31767880412176e-09
2.9861140653985815e-09
1.3177885594379101e-09
5.369501374435558e-10
1.52456101395165e-09
3.974287139970105e-09
5.558687184238479e-09
4.596460474954747e-09
1.6373652222779083e-09
1.9190149515985908e-11
1.6025601774561089e-09
4.102937727816098e-09
5.121072868893618e-09
4.974090406355278e-09
5.6982620366241015e-09
6.705179473285281e-09
6.8209750962216696e-09
4.332692801284308e-09
1.062445105292235e-09
1.162752476562515e-09
5.399053287761751e-09
1.080473570041676e-08
1.1350639694634502e-08
6.414351149837913e-09
1.2034429541641763e-09
1.779868719347209e-09
7.694449154995952e-09
1.276630247180528e-08
1.044298200530942e-08
3.614136937621745e-09
5.3009688650014914e-11
3.928310356910672e-09
1.1414709364795754e-08
1.549743324552647e-08
1.448571775656564e-08
1.1399076434865224e-08
1.2176914706732914e-08
1.614409064440835e-08
1.5935494835279967e-08
1.0684722468530868e-08
7.873901464662962e-09
1.4709775642399748e-08
2.525153077717858e-08
2.788012298813255e-08
1.8751901640532485e-08
5.69093694494402e-09
7.8491794018399e-11
3.4218835910078044e-09
7.919344288052112e-09
7.685188149388724e-09
4.6720933445130095e-09
2.748303424442979e-09
3.6966605299711616e-09
5.856699970540295e-09
6.545314692106859e-09
4.152364622837381e-09
2.8121122567690733e-09
3.6896976349711054e-09
5.2239248689703494e-09
5.25426923257347e-09
5.107944400536405e-09
9.004671962230688e-09
1.6453247964397288e-08
2.031728000111686e-08
1.6035653950725722e-08
6.4340140711527026e-09
2.0882067237544413e-09
1.142857539210896e-08
2.887992972868561e-08
3.948697290712183e-08
3.2186565656321606e-08
1.4524103950444854e-08
1.9799775965038046e-09
4.162243327218082e-09
1.5111195949366053e-08
2.1549359017995617e-08
1.9059458583255104e-08
9.206557654758515e-09
2.8715305850914067e-09
2.3499101070288608e-09
3.478787291800033e-09
3.407573830460647e-09
2.4340836479351325e-09
2.51741683863123e-09
3.3573853392653053e-09
4.3024450006329535e-09
3.4690259136952364e-09
2.0043262795110674e-09
6.964034682554715e-10
4.6066382769564164e-10
2.03896005649762e-09
5.2591360264793266e-09
7.689562827635035e-09
8.10295116097722e-09
5.2800035250285425e-09
1.442654759036629e-09
3.7219619625180067e-10
3.924682538065737e-09
9.383240742324287e-09
1.2666728517519313e-08
1.0871192226221037e-08
5.3437621392060234e-09
6.651945818667653e-10
6.665506709208368e-10
4.55300392200217e-09
8.835982816765164e-09
9.12095438428347e-09
7.1540822379516814e-09
3.3805510308330115e-09
6.972264429553721e-10
1.003178262147422e-10
1.296821099576612e-09
2.56700091526192e-09
2.814087607122223e-09
1.859403393646327e-09
5.056688161628663e-10
4.93898270493031e-10
1.3561386690591167e-09
1.940680356828596e-09
1.148790151776531e-09
2.0070816298474783e-10
1.2150762622727166e-10
9.617017743266796e-10
1.5323677881053375e-09
9.209303065172443e-10
6.489984155003032e-11
4.6560061907356154e-10
2.3350859204260142e-09
4.189411902227749e-09
4.311448369409364e-09
3.127128908197379e-09
1.2760220691252714e-09
8.043013370008e-11
7.85852541152483e-10
2.7978805289827663e-09
4.1812122544209174e-09
3.842846728847594e-09
2.0295301663386185e-09
2.1099693336977204e-10
4.448595217416906e-10
2.5661889076107696e-09
5.038965739515093e-09
5.346299773986054e-09
3.901245230801285e-09
1.62520635394861e-09
4.124337280200999e-10
3.749249851259133e-10
1.2815190885576824e-09
1.4705151889364656e-09
9.05652962738884e-10
3.22858044668588e-10
3.0138134462077666e-10
9.654694161752886e-10
2.2388520775902365e-09
2.7839005952902665e-09
2.408024798089134e-09
1.2275101935128029e-09
3.8840206699860295e-10
5.351672553903594e-11
2.0049113536286766e-10
3.154336269948032e-10
3.9848991726367417e-10
3.1613864285479106e-10
3.0845492955336434e-10
3.9368525589980766e-10
6.763355324401575e-10
1.112596853103164e-09
1.5954863020225818e-09
1.9486298522538398e-09
2.2716933952143283e-09
2.173233078850185e-09
1.7735184576896137e-09
7.990040784314004e-10
4.80404934927883e-10
1.2042036468766725e-09
3.502741550444038e-09
4.425718811038692e-09
3.84111452095315e-09
2.3535074053779165e-09
7.067837195107086e-10
4.5624626631106794e-11
1.6385791299922175e-10
1.8777900091005484e-10
1.8816974287072857e-10
6.683797663959149e-10
7.34802509657154e-10
3.2720728887412243e-10
1.9157917451608292e-10
1.8115974281475002e-09
5.185216598872262e-09
8.05272432718906e-09
7.85470871778178e-09
5.1292194218852514e-09
1.8377578082651202e-09
3.8844340713599605e-10
1.3422298957137244e-09
3.046123302099025e-09
3.715510865366114e-09
3.404132487340724e-09
2.6898233271435715e-09
2.5121864919864503e-09
2.1525400698455697e-09
1.9804135464558215e-09
1.2359549301984928e-09
9.887723235977967e-10
8.811479883368868e-10
4.5686809528684094e-10
1.7128747455483335e-10
2.1960270657847878e-10
1.022553180359042e-09
3.0272227068387776e-09
5.912164216793605e-09
8.810532232059133e-09
9.61863701863533e-09
7.773116154424385e-09
4.408066379558524e-09
1.4448513817471492e-09
4.257889666889061e-10
1.2892608522288682e-09
2.437793587671886e-09
2.9599184645585692e-09
3.2233817258278715e-09
2.5601119876345775e-09
1.9327981592221577e-09
1.823998485366827e-09
2.2877858474127655e-09
2.6171564122756347e-09
3.3031121988040772e-09
3.37900702572459e-09
2.329642044096876e-09
8.127172872045757e-10
5.347581637111922e-10
2.5973769039011726e-09
7.357996894413274e-09
1.2444026926475136e-08
1.3094404411597224e-08
1.0713611280887586e-08
5.6536464750662935e-09
1.7812212604084345e-09
2.934825819855517e-10
7.908576586225896e-10
1.3951797414698574e-09
1.5910401619292416e-09
1.2517500397865249e-09
9.27933389302457e-10
1.037844355619854e-09
1.9293608456020626e-09
3.2013443951072724e-09
4.928210018317931e-09
6.297275276087069e-09
6.052015139313973e-09
4.423769764099776e-09
2.0163505277183936e-09
1.0032235837281628e-09
2.6295985830253775e-09
5.980195441890543e-09
8.729395340464816e-09
9.792580002481246e-09
6.9289218190002165e-09
3.648428010590199e-09
1.2990259126773824e-09
1.817242506484143e-10
2.5277288348592212e-11
2.2627312632215664e-12
4.915811327659422e-12
5.581286325471256e-09
3.546697648094351e-08
1.263818896208766e-07
2.1679857831847773e-07
2.404324184632345e-07
2.129158257565316e-07
1.4106500278461827e-07
7.630570990962406e-08
4.2842799015351374e-08
2.253344430534666e-08
2.4507030101786664e-08
2.2987843954097187e-08
1.580514445519026e-08
5.274918328499328e-09
3.952943041743323e-11
8.341094409113544e-09
3.191137922241877e-08
6.096255153854654e-08
1.0339516343030977e-07
1.6782463700246552e-07
2.3578731127416769e-07
2.983825421293026e-07
3.3532540940299593e-07
2.92378975621647e-07
2.2797077866403922e-07
1.4754098847058964e-07
7.785654169152476e-08
4.737981141811452e-08
4.1050886145599794e-08
3.6700799415376776e-08
3.70075832139083e-08
4.4480790735355735e-08
7.383679472565357e-08
1.2892063568046992e-07
1.82523705812059e-07
2.1113596440060023e-07
2.0791544342942372e-07
2.029399888537021e-07
2.0974847907375335e-07
2.0858748583687422e-07
2.0827365014759753e-07
1.5895806778119185e-07
1.278066672119058e-07
1.329239476109474e-07
1.5968267285285388e-07
1.7805287833925538e-07
1.571153221615641e-07
9.956782009481817e-08
5.717091236220243e-08
5.3105113760093225e-08
8.788073725695978e-08
1.3479512413404223e-07
1.6970352084812334e-07
1.475400964442022e-07
1.0762295913330196e-07
6.430621035298171e-08
5.221311559112138e-08
8.066964901283748e-08
1.289055020743461e-07
1.484219667034437e-07
1.424417496455372e-07
1.3487714463189123e-07
1.7260135248234765e-07
2.4215624662490367e-07
3.084394225666275e-07
2.934720323412732e-07
2.493835077739651e-07
1.6436263501687107e-07
1.2727106047975103e-07
9.82011378851933e-08
6.368466911709992e-08
2.946174619499937e-08
3.0403199440259983e-09
9.576721617623256e-09
3.5803351259540896e-08
5.488894234743503e-08
5.054789621443949e-08
4.1324654124851376e-08
4.528839942339237e-08
5.2402567464998344e-08
6.49190505603725e-08
6.405859189104308e-08
7.664417073173258e-08
1.2795664368026792e-07
2.0973614610847074e-07
2.6972184829324835e-07
2.818460595728334e-07
2.3785580701346864e-07
1.4109637468720253e-07
7.773505521739822e-08
4.4236218921082814e-08
5.4721162901570695e-08
6.343277925763165e-08
7.21150753788544e-08
6.617218067819029e-08
5.230812625435888e-08
4.2888402858473374e-08
4.739066359169798e-08
4.262225093162087e-08
3.4391861524426506e-08
1.5868783304819234e-08
5.1130299982136196e-09
3.2441966759855684e-08
1.0495766708769021e-07
1.7425756050148468e-07
2.151208704060508e-07
1.826412794010439e-07
1.0321716894498487e-07
3.899866070927742e-08
2.3295292862111505e-08
5.382013437169395e-08
8.734155370067669e-08
8.931030791641564e-08
5.336695907415142e-08
2.879334777086479e-08
3.08175629053697e-08
6.683785308073668e-08
8.016517634379097e-08
7.110665414141198e-08
2.6138368433122615e-08
6.0150438779478195e-27
6.771012992717487e-28
7.028421189871167e-29
7.177339819983138e-28
2.6107165584915454e-09
5.774976690015977e-09
7.012607260781965e-09
5.5397671998039745e-09
5.930577818570587e-09
8.006256251830465e-09
8.582486098261724e-09
6.039334381544711e-09
1.466201758495452e-09
1.76900946933758e-09
6.885140146333037e-09
1.2428810398182303e-08
1.1980313734155824e-08
5.407375246422133e-09
1.2099979814095353e-09
3.446750479745293e-09
1.1345790646926562e-08
1.766062285458978e-08
1.51458298831166e-08
5.096480549006121e-09
1.3769385516699763e-10
5.998487782779912e-09
1.4620809671796021e-08
1.668105477657058e-08
1.5008664411342464e-08
1.925247354815646e-08
2.5948486665300018e-08
2.912164016563781e-08
1.98971647327962e-08
6.185949606670614e-09
3.8916913210815245e-09
1.879556629057298e-08
3.977170037364776e-08
4.3585624054043736e-08
2.6387757732077622e-08
4.379319681793656e-09
3.592367211446668e-09
2.374769256068825e-08
4.318881592532012e-08
3.744187261246657e-08
1.3039553316632552e-08
1.2825585786695074e-10
1.294954419282308e-08
3.972881515559514e-08
5.2470263093944974e-08
4.819807008731606e-08
3.950751376982674e-08
4.888385074924831e-08
6.866684769968016e-08
6.864491726830471e-08
4.3279275703882094e-08
2.3896563131095817e-08
4.5758613317701444e-08
8.668804797685984e-08
1.0084183026603999e-07
6.994426103493063e-08
2.1822334188257638e-08
1.1891314650354982e-10
1.2261779681129322e-08
2.790417780291718e-08
2.6136630615524545e-08
1.3574286001381132e-08
5.065106112699885e-09
9.528955833644671e-09
1.8568766579350535e-08
2.232501483627212e-08
1.513867129010985e-08
1.2420179429252656e-08
1.7371621442936587e-08
2.3794258161437416e-08
2.153553514371403e-08
1.740889870085523e-08
3.010076730675866e-08
5.9223901030676185e-08
7.897541896662461e-08
6.733529213777e-08
3.0946844596738075e-08
8.717530493405144e-09
3.630381165914177e-08
9.590666304456601e-08
1.3786158369579928e-07
1.1606453500243337e-07
5.3421765476498287e-08
8.877365322887973e-09
1.5747977767938935e-08
5.387640462707778e-08
7.308378149154858e-08
6.178700962499787e-08
2.8255661523769304e-08
9.996215731627868e-09
1.173672960246404e-08
1.5216401503682032e-08
1.2972780464244808e-08
7.869131321556652e-09
7.914843189213697e-09
1.182027136559893e-08
1.5952047937902607e-08
1.3252862337794359e-08
8.617167335814344e-09
3.5814471343319987e-09
1.627578841039648e-09
5.837810999324702e-09
1.6053755740550626e-08
2.548717116338327e-08
2.8172438757833714e-08
1.9267679312729863e-08
5.82560127460145e-09
3.4452016393886037e-10
1.078355915124757e-08
2.9729863358732924e-08
4.107119890677024e-08
3.676538367935698e-08
1.9276893114342063e-08
3.207189727665931e-09
2.9010453438769686e-09
1.4750629971894433e-08
2.8459326262137958e-08
2.890849698815092e-08
2.2619722560383747e-08
1.0828411791562374e-08
2.8846278392027833e-09
9.978828824395106e-10
4.6388278093961314e-09
9.027846332043038e-09
9.61558071793756e-09
6.554900027822745e-09
1.9414218459915984e-09
2.3651861517907044e-09
5.762600229119741e-09
7.77119296769482e-09
4.482059807051478e-09
7.54824567751119e-10
7.868573546249336e-10
4.6448459229449025e-09
6.928814220307779e-09
4.435900835554909e-09
4.609224783609956e-10
1.1353634495919042e-09
7.326667016464343e-09
1.42862922603593e-08
1.5966592054130076e-08
1.1991731464379488e-08
5.260482003900068e-09
3.6901092511218486e-10
1.87637435610063e-09
9.047676259996222e-09
1.541384074959183e-08
1.4836980108152149e-08
8.44792316241194e-09
1.066489218157979e-09
1.2732104622382936e-09
8.473567982692248e-09
1.7076518798455393e-08
1.7289868104575742e-08
1.2521695160910596e-08
4.944669028875767e-09
9.627814975531298e-10
1.1265930768809306e-09
4.502770625340564e-09
5.365497164002099e-09
3.4688268786144357e-09
1.2316247653413276e-09
8.378205962930814e-10
3.1548611753391304e-09
7.49637339969359e-09
9.608355518208679e-09
8.58266587285287e-09
4.332074921993316e-09
1.3886005273346293e-09
1.5928597927473223e-10
7.977433288484835e-10
1.212905179089194e-09
1.2050594103260393e-09
7.238144558499031e-10
6.131047500345996e-10
7.431212052100337e-10
1.6349678048931934e-09
3.3856982720036713e-09
4.9000513210523255e-09
6.030125948926946e-09
7.77362995125224e-09
7.629171464059929e-09
6.605676535135689e-09
3.208826345891413e-09
1.730605492449878e-09
4.231799756161524e-09
1.2317586237849598e-08
1.5849259141276617e-08
1.3110012677303197e-08
6.82061951746962e-09
1.5484403871589716e-09
2.660405899500477e-10
1.0159651903293263e-09
7.65749201098755e-10
4.507990169430524e-10
2.6323388450049554e-09
3.4419544147459716e-09
1.9785688877133026e-09
3.5439358091834153e-10
4.728441916361775e-09
1.6233726316052904e-08
2.6342457424482133e-08
2.6216775452734968e-08
1.6926931552778563e-08
6.054889743955746e-09
1.7215713423909762e-09
5.824102669900655e-09
1.1093617858016955e-08
1.2952497413897556e-08
1.0656503658816168e-08
8.243373773119811e-09
8.097379613889792e-09
6.835691560311126e-09
5.685152229617327e-09
3.096634673575568e-09
2.4529999364955594e-09
2.4763042308751776e-09
1.4049458892065329e-09
6.582785201350139e-10
7.331097322217445e-10
2.709702690405878e-09
8.024155006993714e-09
1.6808311792911774e-08
2.7156918318714434e-08
3.019324888119975e-08
2.538861269188666e-08
1.4328507806558646e-08
4.568699051773208e-09
1.6781538264660575e-09
5.057829412160511e-09
8.421849243800781e-09
9.686480118942589e-09
9.477261806110086e-09
6.539385807209452e-09
4.260158647006411e-09
3.6286238867110997e-09
5.10027811136109e-09
6.469712423707535e-09
9.570741438953802e-09
1.1243074965214068e-08
9.000779610766479e-09
3.610300125985277e-09
1.3799958588288603e-09
7.24868360450589e-09
2.338734604175984e-08
3.9375389631975334e-08
4.243465536292045e-08
3.391284065474701e-08
1.634598386261755e-08
4.193019038842538e-09
7.737022022412727e-10
3.3085481530362793e-09
5.503551400344469e-09
5.29044546016459e-09
3.0873034352645406e-09
1.7311813866199289e-09
2.0811743529146535e-09
4.955257838906087e-09
8.767426178067017e-09
1.4805899490841471e-08
2.0633744389947912e-08
2.052634813982602e-08
1.5888502453214343e-08
7.2950575773734995e-09
3.3760934573184188e-09
8.79552767459144e-09
2.0772506381695117e-08
2.936326918034417e-08
3.2192545236873895e-08
2.056278766765009e-08
9.110212263601335e-09
2.2312295658305704e-09
3.3662229229919767e-11
7.903793823751131e-11
1.41626362964266e-10
1.975021573620493e-11
8.328986655344413e-09
5.099038652494161e-08
1.824218627877695e-07
3.0095307769973947e-07
3.224606995895589e-07
2.6715882766985255e-07
1.6066763762299448e-07
7.105318463037895e-08
3.10254869577265e-08
1.4262633007510815e-08
2.748174245939575e-08
3.1557913054468195e-08
2.6114929412976746e-08
1.0932528349100779e-08
1.2309590506183659e-09
9.504665573358702e-09
4.120516986274857e-08
7.251906874577213e-08
1.2248338082203529e-07
2.0125082643576567e-07
2.9005361268086484e-07
3.7197812512159836e-07
4.316601145699634e-07
3.816598817942413e-07
3.0437256498129344e-07
2.0504169477177658e-07
1.164120585642132e-07
7.335698081454853e-08
6.387517800047413e-08
5.0854662787138856e-08
3.786711983656562e-08
3.0769796862054704e-08
6.232228665596378e-08
1.4435029255295094e-07
2.3394995790785325e-07
2.834287740477417e-07
2.837739191489341e-07
2.843872371567049e-07
3.124103031829225e-07
3.311881751773392e-07
3.44799483943295e-07
2.7658370271705536e-07
2.3007284969300954e-07
2.444307527688275e-07
2.9085401702111595e-07
3.1493060416804223e-07
2.7714134054405916e-07
1.7648997553712755e-07
1.1816835574993941e-07
1.2664918568304493e-07
1.8656899401290623e-07
2.586544727791614e-07
3.0652133589144145e-07
2.6237087488177377e-07
1.975383774332213e-07
1.3047770980951112e-07
1.1416684046424607e-07
1.6779977717647724e-07
2.5486403935566726e-07
2.8622427874952525e-07
2.620352284109848e-07
2.2905853174718863e-07
2.73575217087132e-07
3.7817870192933487e-07
4.851547177775989e-07
4.5262226958665604e-07
3.7791642868234364e-07
2.3514246385913926e-07
1.8983654598330723e-07
1.6266317724352778e-07
1.1297110402868642e-07
4.882849774141516e-08
2.9956874426223637e-09
1.5931139239903213e-08
6.853351222112593e-08
1.0422998493532254e-07
9.764570929332193e-08
8.044644531172028e-08
9.330596554989816e-08
1.1290153468433591e-07
1.3594870742525937e-07
1.212981294196679e-07
1.1700511411551835e-07
1.7900382537782104e-07
3.0213279690249206e-07
4.0346153486087113e-07
4.303964141416953e-07
3.6662147473976717e-07
2.2279637975929826e-07
1.3283969830965593e-07
8.593270994758138e-08
1.1161742521561261e-07
1.2513688316688364e-07
1.3233370963056275e-07
1.1809408497538176e-07
8.811755950064632e-08
6.96918361991924e-08
8.262517871645233e-08
8.249103063886373e-08
7.418064264683927e-08
3.905313428645551e-08
1.5806826613663192e-09
2.2365220777526247e-08
1.2416561291773412e-07
2.38519985657685e-07
3.149592620651317e-07
2.730117887113814e-07
1.4941518753943172e-07
4.4596278064312254e-08
2.0995375459606153e-08
7.54492630941226e-08
1.3231552739920754e-07
1.3315689592262206e-07
6.859436859536214e-08
2.715713191247284e-08
4.060698565886864e-08
1.1286907256009234e-07
1.436086433475336e-07
1.307536112378635e-07
4.746040133685106e-08
1.0944439751747878e-26
1.2121759997932892e-27
1.4462685448170083e-28
1.0555582397294426e-27
5.0376497378502316e-09
1.0766031566773264e-08
1.4399177573687569e-08
1.363217566608553e-08
1.5592988365054225e-08
2.0983386980135603e-08