# vtk DataFile Version 4.1 
COMMENT
ASCII
DATASET STRUCTURED_POINTS 
DIMENSIONS 400 400 1 
ORIGIN 0 0 0
SPACING 0.002506265664160401 0.002506265664160401 0 
POINT_DATA 160000
SCALARS U double 1
LOOKUP_TABLE default
9.220308510597722e-07
2.6126017837851365e-08
9.346085311806608e-08
1.4954945460723368e-07
1.6513189756755244e-07
1.4579074752020298e-07
1.1745087851175774e-07
9.675488237483683e-08
7.551856583806905e-08
5.714286252037897e-08
5.251764736610531e-08
6.456805350451475e-08
8.307063489646788e-08
9.084458484305695e-08
8.359104514072427e-08
7.225291827872291e-08
5.66785504232595e-08
3.4662717664260135e-08
1.901047521781479e-08
4.241023860500553e-08
1.2660846755526418e-07
2.3307523715994378e-07
2.9507662057830464e-07
2.6858834153129937e-07
1.8555691864522504e-07
1.2631859477055372e-07
1.3120174370526995e-07
1.729069794430696e-07
1.9167710177066612e-07
1.5586002045086914e-07
9.425938150733011e-08
4.5325130927601886e-08
1.8639985621315652e-08
6.442954489403924e-09
5.348803024351935e-10
3.7157481945015737e-09
1.720698254746595e-08
3.321398002494212e-08
4.6068506411090945e-08
5.883565478461931e-08
8.281821594046232e-08
1.1942536687811893e-07
1.4690410628990837e-07
1.489802023275589e-07
1.2508464603618464e-07
9.171211164023138e-08
6.942578948600112e-08
6.704773877241764e-08
6.61829722748863e-08
5.5436309874261884e-08
3.560406744185146e-08
1.6955649359694044e-08
5.342377186178359e-09
1.516095346436987e-09
1.057709930672084e-09
3.00594145745729e-09
7.478038944449634e-09
1.3006619058925772e-08
1.5872136914358767e-08
1.5341619961131032e-08
1.1599107148523311e-08
8.529950292117233e-09
7.83197514862274e-09
1.1518307075479253e-08
1.550712351683108e-08
1.730978450857268e-08
1.5378820382523378e-08
1.3849689975737972e-08
1.816607156833276e-08
2.772106424729136e-08
4.1688823674120505e-08
5.457036430448983e-08
6.799632663166622e-08
8.029784452961034e-08
9.130037034435073e-08
1.019273477265652e-07
1.14408177993672e-07
1.1929839671936046e-07
1.1670462078519195e-07
1.068585986034803e-07
9.561403001969872e-08
8.453591379975503e-08
7.690906170171226e-08
7.415278768765102e-08
7.015751748429565e-08
6.679538515721523e-08
6.009742550032877e-08
4.896780497245877e-08
3.595853001135028e-08
2.50030650204239e-08
1.995599892149779e-08
2.373429538543973e-08
3.4700999951867135e-08
5.230367008578985e-08
7.487309155085171e-08
1.0056025805044095e-07
1.256784193803252e-07
1.4399449802165542e-07
1.4705827532497977e-07
1.3603076778313713e-07
1.0814214661516218e-07
7.617317231264472e-08
5.160229498626503e-08
4.127520295748201e-08
5.0243515001013254e-08
7.472405218146089e-08
1.0912051113494519e-07
1.4824730902652552e-07
1.837582626935601e-07
2.157132941816558e-07
2.406944771250365e-07
2.530283814465299e-07
2.52144366881166e-07
2.387753574334849e-07
2.1384126140502276e-07
1.7630363629225825e-07
1.3063809097194888e-07
8.421922505607227e-08
4.230991478235364e-08
1.2849292086803756e-08
4.227563548448934e-27
3.9792274010390166e-28
2.6661405948704666e-29
1.3383270359606635e-29
6.204536865471003e-11
1.3151424474319605e-10
1.6646358959600292e-10
2.2360171693328663e-10
3.8790282844333167e-10
6.938625900371442e-10
9.91426575792114e-10
1.139325048825555e-09
1.1776098142854236e-09
1.3630013101900673e-09
1.8027416001453466e-09
2.305337063439081e-09
2.6209564175012886e-09
2.6784736320639294e-09
2.8391738501330506e-09
3.2023502176806968e-09
3.6770270828166777e-09
4.0709666224057145e-09
4.293202673773913e-09
4.602196221143052e-09
4.809792625990398e-09
5.028605735072639e-09
5.47886585367094e-09
5.98538071874469e-09
6.608392226609317e-09
6.676057528153188e-09
6.681267294325504e-09
7.298284750814255e-09
8.106082739477535e-09
8.812854748875127e-09
9.10352323971875e-09
9.374539306450361e-09
1.0156568123517843e-08
1.1079081264355235e-08
1.188467043366584e-08
1.3092539398803037e-08
1.3995105151008919e-08
1.4434900017834086e-08
1.551306225816586e-08
1.7028635565507167e-08
1.8681966825005965e-08
1.9834336719293638e-08
2.0332260633911632e-08
2.1136533468708797e-08
2.2622661358855062e-08
2.422206439737526e-08
2.4944956365103535e-08
2.5317235537429018e-08
2.5605209220229285e-08
2.5844076070976395e-08
2.6396715189712788e-08
2.6708743486879126e-08
2.6622255019542453e-08
2.5871260157656152e-08
2.4964503287884052e-08
2.4299024462519888e-08
2.376479205406476e-08
2.3593459959816138e-08
2.2440949466127507e-08
2.015623051265971e-08
1.86626765157511e-08
1.8188063581411472e-08
1.7356857155762882e-08
1.5378159219152416e-08
1.3393709360952076e-08
1.1879460957211068e-08
1.0275440962111157e-08
9.154525679017638e-09
8.11535740641455e-09
6.385934142517382e-09
5.128762312037482e-09
4.8242298896039274e-09
4.483750461594567e-09
3.773791014691745e-09
3.3082441200504385e-09
3.2426827806875064e-09
3.2173870673291494e-09
3.2778024879198506e-09
3.59601266761388e-09
3.662893692752602e-09
3.3373074331092067e-09
3.3148828885976798e-09
3.5072743703033435e-09
3.4232284052622636e-09
2.9518805633043574e-09
2.2829518081725432e-09
1.8902892673312026e-09
1.8441709062282547e-09
1.7687127189283746e-09
1.5590788410926414e-09
1.1765033156385042e-09
8.968139560772441e-10
8.97370232898119e-10
9.966381236169718e-10
1.0571121266045936e-09
1.0350892134043646e-09
1.0350837630243323e-09
1.3383604253438537e-09
1.6419559916902322e-09
1.6807673265326916e-09
1.9438100083954764e-09
2.6282890801384025e-09
3.2181185926578845e-09
3.2251261456704478e-09
3.0552370715188375e-09
3.6615606799203496e-09
4.458980482189046e-09
4.0786253555070345e-09
3.577630451116179e-09
3.7060295927066197e-09
3.369742071708542e-09
2.791767663423362e-09
2.6742426834289263e-09
2.430060102054105e-09
2.187677257903746e-09
2.3589800724048227e-09
2.3106502957007463e-09
2.208424818426445e-09
2.7385025966991746e-09
3.227818796451814e-09
2.9938859426522967e-09
2.561935418377785e-09
2.7809954833421984e-09
3.357419170556066e-09
3.420165098747229e-09
2.2743898482459556e-09
1.2503275237956674e-09
1.524841216109491e-09
2.0130087018163458e-09
1.5059397497726668e-09
5.551718872953838e-10
6.303766720177771e-10
1.7757147210895795e-09
2.3510128964591755e-09
1.7940967059314152e-09
1.000246038900231e-09
1.1999705514840246e-09
2.58946337890702e-09
3.2654235700254814e-09
2.2690327736918073e-09
1.0940468835784978e-09
8.221308749322476e-10
1.5277973132549942e-09
1.9332633073862045e-09
1.3169427856070181e-09
3.073791916957019e-10
1.2784209645651298e-10
7.01170567520539e-10
1.0917739497162788e-09
7.814312099218685e-10
2.2003032280123884e-10
4.051504934970555e-10
1.3431813572460113e-09
1.8504084915262846e-09
1.5713822006207516e-09
5.0694930972125e-10
1.376553122971284e-10
8.671896797050088e-10
1.8193853047393855e-09
1.5399044359624243e-09
4.1308931040023123e-10
2.327997619326382e-11
6.151103706813115e-10
9.261788043200086e-10
4.700691060644312e-10
4.0639093677405334e-11
4.1068510669406353e-10
8.661556221880362e-10
9.160052012184078e-10
4.026383978643149e-10
1.7851916573163805e-11
2.77115564839698e-10
6.30999328533432e-10
6.003518270989843e-10
4.2002749669198864e-10
3.000749646871884e-10
1.1789009145740875e-10
5.304898646445246e-11
4.576761660167689e-10
6.587940919363385e-10
3.152370652870484e-10
5.1245052861879796e-11
1.3862006194378455e-10
3.802076876811815e-10
1.6721305780151641e-10
5.5590281645883495e-11
2.488854443762808e-10
4.0362864453110956e-10
2.467850437887485e-10
5.7456403815573904e-11
3.4417876801463384e-11
1.5208458766116924e-10
2.2289001664161094e-10
1.9968693074179092e-10
8.867040139005675e-11
6.141007631561401e-12
3.1574485919110246e-11
9.723231444681965e-11
1.5400295564289464e-10
5.302146548009562e-11
4.155079362335541e-12
1.2420639080011853e-12
4.784507906278157e-12
1.696486942895991e-11
6.317722817351567e-11
8.98692930028611e-11
7.856902224539871e-11
5.231000092876246e-11
8.968256463923552e-12
4.617358263836379e-12
4.270246845601422e-11
1.564817866312968e-10
2.6636420624513343e-10
3.3292069596933746e-10
2.8168480262775385e-10
1.104476194867782e-10
2.7354449004883594e-11
9.924175661162994e-11
2.5504199143443975e-10
3.415495198984401e-10
3.716219760376447e-10
2.8016380007713755e-10
1.6296266506137797e-10
2.024075506648478e-10
3.093165063810776e-10
3.361113901386828e-10
3.303533439006403e-10
2.140548006398665e-10
8.722678894959472e-11
1.531952417224857e-10
3.269440625816184e-10
5.333158181372154e-10
4.650677571697462e-10
2.591081206935126e-10
9.353609275778227e-11
1.6405610315947545e-11
5.0970530346489365e-11
1.061151158271601e-10
1.6237781083389254e-10
1.188609495638373e-10
4.020930298839216e-11
1.0785028725166773e-12
8.13418993034595e-11
2.445281798393483e-10
3.581094387101867e-10
3.1079575644068353e-10
1.9523290495246366e-10
1.832213862497205e-10
3.4986406114722476e-10
6.490884311278143e-10
7.390330929051836e-10
6.099968855406289e-10
3.0055217842219383e-10
5.883282708345944e-11
1.2747327242293096e-10
4.015729077230089e-10
8.313168967602683e-10
1.0577975132248764e-09
9.371838489470351e-10
5.856735243208792e-10
2.944090131881423e-10
3.2461829583098494e-10
5.298642926090433e-10
8.946756381128429e-10
9.974772712944783e-10
7.274858386859113e-10
5.309147455341906e-10
4.530312449350486e-10
5.268008535726606e-10
6.705128301741683e-10
8.574401204135251e-10
1.006365520471093e-09
7.766372677633267e-10
4.0172043224716656e-10
1.315405599240624e-10
5.212299483636079e-31
2.9198041938666465e-08
1.6493074432867436e-07
5.900083267960923e-07
9.44089643335666e-07
1.042459931982604e-06
9.203613292303572e-07
7.414547802587746e-07
6.108031796715471e-07
4.7674059443768125e-07
3.607367531879595e-07
3.3153826672863317e-07
4.0761118630657314e-07
5.244159952107257e-07
5.734921061979579e-07
5.277012891837371e-07
4.561249121694964e-07
3.578056007921366e-07
2.188220133777295e-07
1.2001108807226748e-07
2.677312808898969e-07
7.992656562436099e-07
1.4713789368113388e-06
1.8627870105585158e-06
1.695569350128123e-06
1.1714008961271208e-06
7.974357204899243e-07
8.28262515199667e-07
1.0915431887155747e-06
1.2100369548089902e-06
9.83927567667861e-07
5.950493507449498e-07
2.8613268302425656e-07
1.1767222704507703e-07
4.067367963263076e-08
3.376641896017249e-09
2.345711923112861e-08
1.0862583256344685e-07
2.0967628827439936e-07
2.9082553260311224e-07
3.7142316892371265e-07
5.228225014546144e-07
7.539195132293098e-07
9.273898435539726e-07
9.404960148393425e-07
7.896459346723527e-07
5.789687096846075e-07
4.3827755177226486e-07
4.2326517305167697e-07
4.1780599504018127e-07
3.499634696394662e-07
2.247646534101815e-07
1.0703919314556883e-07
3.372585333400315e-08
9.570947073258832e-09
6.6772091802232445e-09
1.8976185542849033e-08
4.7208056615501606e-08
8.210938903517848e-08
1.0019909546181001e-07
9.684999892065772e-08
7.322391753030086e-08
5.384865996406244e-08
4.944241785499225e-08
7.271383534817585e-08
9.789480509050973e-08
1.0927481030161617e-07
9.708484118508773e-08
8.743160517598811e-08
1.1468045853326637e-07
1.7500010098227728e-07
2.631770659207751e-07
3.444968482715629e-07
4.292535063161649e-07
5.069116674593058e-07
5.763694311102022e-07
6.434563978454579e-07
7.222465387145901e-07
7.531179642553508e-07
7.367437353889665e-07
6.745868549495135e-07
6.036011012962718e-07
5.33666143536741e-07
4.855186454671174e-07
4.681185836768247e-07
4.4289687202818233e-07
4.2167209178503787e-07
3.793885919210352e-07
3.0912849299781344e-07
2.270023375374348e-07
1.5784166381231784e-07
1.2598007765180105e-07
1.4983205738939085e-07
2.1906368534736586e-07
3.3018745114200654e-07
4.7266578459499895e-07
6.34826107563693e-07
7.933943620147603e-07
9.090217990871051e-07
9.283630961125744e-07
8.587476255018511e-07
6.826897556771389e-07
4.808730547982387e-07
3.257597454757173e-07
2.605659227650005e-07
3.171819133798592e-07
4.717249150648446e-07
6.88866065801172e-07
9.358693381524035e-07
1.1600461743038238e-06
1.3617748556929235e-06
1.5194783803032939e-06
1.5973409934595684e-06
1.5917603044633443e-06
1.5073631838295e-06
1.3499569138552497e-06
1.1129859185583958e-06
8.24704236038009e-07
5.316669215144536e-07
2.6709794737360804e-07
8.111620075918075e-08
2.66881545848243e-26
2.5120435160829543e-27
1.6831059196468974e-28
8.448714823901917e-29
3.9168574781964983e-10
8.302353006853281e-10
1.0508667607167821e-09
1.411573621202483e-09
2.4487888900415104e-09
4.380280000836883e-09
6.258769480579595e-09
7.1924366545772786e-09
7.434124266632595e-09
8.604480866767028e-09
1.1380514083300878e-08
1.4553345257639077e-08
1.654581633811876e-08
1.6908916335539134e-08
1.792339955086944e-08
2.0216092949227145e-08
2.3212677012224085e-08
2.5699575011305394e-08
2.710252733248611e-08
2.905317040701219e-08
3.036370421219946e-08
3.174504786639843e-08
3.458749163118621e-08
3.778506556796579e-08
4.171807029739582e-08
4.2145234077889206e-08
4.217812277213689e-08
4.607328769907184e-08
5.117282963325884e-08
5.563460541187494e-08
5.746956437291018e-08
5.918045969145787e-08
6.411732361331228e-08
6.994104998124187e-08
7.5026647876112e-08
8.265179491183671e-08
8.834959555795034e-08
9.112597331240155e-08
9.793229572665644e-08
1.074999472231782e-07
1.1793724987463452e-07
1.2521203723742426e-07
1.2835537742675897e-07
1.3343266544323757e-07
1.4281443118383632e-07
1.5291129076886264e-07
1.5747483011292256e-07
1.5982498854008046e-07
1.6164293546739616e-07
1.6315087623868703e-07
1.666396276344808e-07
1.6860942875850418e-07
1.68063436354219e-07
1.6332248645796395e-07
1.5759822773683662e-07
1.5339713139358652e-07
1.50024579582673e-07
1.4894297847502633e-07
1.4166730352332055e-07
1.2724411817927108e-07
1.1781547222434425e-07
1.1481929174959765e-07
1.0957197486709974e-07
9.708066733174459e-08
8.45530485332254e-08
7.499376101082006e-08
6.486775507482849e-08
5.779153729386393e-08
5.1231379609409675e-08
4.03137163074794e-08
3.237732557862946e-08
3.045484510663759e-08
2.8305435049632005e-08
2.3823537320418548e-08
2.0884589780474266e-08
2.047070808723562e-08
2.0311018965900252e-08
2.069241502666991e-08
2.2701241711074157e-08
2.312345443886358e-08
2.1068063354028025e-08
2.0926499613220982e-08
2.2141046371825717e-08
2.1610473222175483e-08
1.8634904924920383e-08
1.441202954561546e-08
1.1933193102461721e-08
1.1642052842543971e-08
1.1165693411332418e-08
9.842297258021157e-09
7.427139059527259e-09
5.661490174972925e-09
5.665001890791584e-09
6.2916694222083956e-09
6.673435307357284e-09
6.534407021877925e-09
6.5343726142142225e-09
8.448925607491533e-09
1.0365491807635858e-08
1.0610503595642913e-08
1.227106379196129e-08
1.6592106649721405e-08
2.0315637006725003e-08
2.0359874936188963e-08
1.9287383459415214e-08
2.311503927203687e-08
2.8149064830270083e-08
2.5747923770724264e-08
2.258519675281863e-08
2.339576674190411e-08
2.127281974359421e-08
1.7624129386225925e-08
1.6882206811266493e-08
1.534070840350309e-08
1.381057154352199e-08
1.4891987811267407e-08
1.4586887122195177e-08
1.3941548664537937e-08
1.72878727413725e-08
2.0376873351345224e-08
1.8900080372807688e-08
1.617322311029212e-08
1.7556125770448912e-08
2.119502659226205e-08
2.1591134897185925e-08
1.435797881226725e-08
7.893183355921926e-09
9.626158809078665e-09
1.2707907710667512e-08
9.506835882363088e-09
3.504740491653624e-09
3.97950021961231e-09
1.1209896298867976e-08
1.4841691885303167e-08
1.1325939794704908e-08
6.314445803853536e-09
7.575285198726881e-09
1.634700416824421e-08
2.0614268247663118e-08
1.4324160176027943e-08
6.906600460849564e-09
5.190023905660447e-09
9.644820332834093e-09
1.2204483601345666e-08
8.313718348372158e-09
1.9404518205629337e-09
8.070534229890476e-10
4.426414477715608e-09
6.8922516735206935e-09
4.9330912921350794e-09
1.3890277936620791e-09
2.557671546897121e-09
8.479359632757669e-09
1.1681430048530837e-08
9.91996704517772e-09
3.2003165391741047e-09
8.690032005209975e-10
5.4744753002761626e-09
1.1485584002647882e-08
9.721251298020142e-09
2.607788445272382e-09
1.4696398912910612e-10
3.8831256990789405e-09
5.8468673077543675e-09
2.9674957749128303e-09
2.565502332064709e-10
2.5926109655187898e-09
5.467947406243044e-09
5.7826424441542035e-09
2.541812957000101e-09
1.1269723179318811e-10
1.749400794936884e-09
3.98343098331405e-09
3.789956598707518e-09
2.65158847007879e-09
1.8943410200292846e-09
7.442274844073593e-10
3.348925533836149e-10
2.8892604755584745e-09
4.158896339149455e-09
1.9900577325050053e-09
3.235045143170273e-10
8.750935614133983e-10
2.400210292970487e-09
1.0555980729953387e-09
3.5093547689509806e-10
1.5711870767416103e-09
2.548064277841919e-09
1.557927473443469e-09
3.627161057060211e-10
2.1727635931005764e-10
9.600936659981647e-10
1.407080733707208e-09
1.2606021447415728e-09
5.597667195953779e-10
3.876752155217807e-11
1.993263380877481e-10
6.138171570594223e-10
9.722041170085697e-10
3.347188163654897e-10
2.6230569703655782e-11
7.841016037033565e-12
3.020408449257114e-11
1.0709739845248623e-10
3.988310553851086e-10
5.67335193570112e-10
4.959977980775771e-10
3.3022741707367585e-10
5.6615639746765296e-11
2.9148886753930196e-11
2.6957609654994336e-10
9.878527107789468e-10
1.6815286229682592e-09
2.1016925935452425e-09
1.7782459022959912e-09
6.972439582772116e-10
1.7268569833630856e-10
6.26502549605064e-10
1.6100526970247582e-09
2.1561654321592513e-09
2.346009617584423e-09
1.7686439765698474e-09
1.0287658001755375e-09
1.2777771260850786e-09
1.952681880078356e-09
2.121835103113343e-09
2.0854851757033046e-09
1.3513049641078642e-09
5.506533493219107e-10
9.671051057882423e-10
2.0639627489384618e-09
3.3667654746905287e-09
2.9359227965520544e-09
1.6357217342809408e-09
5.904833065598827e-10
1.0356685574390362e-10
3.2177148316473573e-10
6.698933280425395e-10
1.0250736782585417e-09
7.503564073501739e-10
2.5383701075196507e-10
6.808472788649749e-12
5.135026731012513e-10
1.5436801337480999e-09
2.2607064208623498e-09
1.962020226813524e-09
1.2324843583551394e-09
1.156656930981533e-09
2.2086542379705497e-09
4.097625544982257e-09
4.665436533530231e-09
3.850844816642105e-09
1.8973536190792742e-09
3.7140531795002284e-10
8.047250764816498e-10
2.5350866321858432e-09
5.248014274759861e-09
6.677762079471493e-09
5.916340972396673e-09
3.697294049914218e-09
1.858572476814331e-09
2.0492804332599856e-09
3.3449763647709107e-09
5.647991203347441e-09
6.2969668713608775e-09
4.592539957972599e-09
3.3516077612547545e-09
2.859937587695855e-09
3.3256372031883102e-09
4.232875474896576e-09
5.412927379701323e-09
6.353077433696705e-09
4.902827650221333e-09
2.5360179386607566e-09
8.304014255955368e-10
6.241115704274412e-11
9.905935501966317e-08
5.555878865082123e-07
1.955233413069346e-06
3.0750398574509297e-06
3.3150063604992368e-06
2.9049742474184216e-06
2.4062215801792443e-06
2.0309477863839658e-06
1.5864245364303612e-06
1.1544140670006056e-06
1.0148267694950186e-06
1.2481922575603357e-06
1.6070389521623356e-06
1.7036835572447773e-06
1.5141081563520212e-06
1.2784976083242206e-06
1.0375962039449562e-06
6.442585798547962e-07
2.9761858070865203e-07
7.009689233221341e-07
2.374223695415559e-06
4.5684520885829656e-06
5.863997802107114e-06
5.3003674472677576e-06
3.561641912191083e-06
2.4183111326278152e-06
2.6481442165256597e-06
3.605289403121529e-06
3.962015952638782e-06
3.170551186735154e-06
1.8598385446108834e-06
8.74530206143347e-07
3.958151902484167e-07
1.824247014963006e-07
4.5620088835114395e-08
9.729011094918072e-08
3.8094309386138784e-07
7.119970373437806e-07
9.290411783013312e-07
1.136411372096462e-06
1.5997410223082154e-06
2.339783025674595e-06
2.901559037086449e-06
2.895907539650245e-06
2.3762695363776023e-06
1.6909117812393425e-06
1.2773213897816435e-06
1.270408231215483e-06
1.271649472726466e-06
1.0427497647528927e-06
6.140896707169068e-07
2.5003287870266707e-07
5.544700210068846e-08
8.872091960219661e-09
5.976252070581774e-09
3.598272082520205e-08
1.2396215314924994e-07
2.444513939247905e-07
3.189631512072559e-07
3.2172004351448066e-07
2.6104511760839094e-07
2.0260979866965453e-07
1.9343874629169922e-07
2.7477132716336615e-07
3.600582425595127e-07
3.986542673772527e-07
3.5917295362010146e-07
3.064683997720532e-07
3.6633599406261554e-07
5.26550410926083e-07
7.870267319618701e-07
1.023987048484946e-06
1.2498773749092233e-06
1.4535400236029623e-06
1.6267683434737128e-06
1.8301201244098727e-06
2.069325878378827e-06
2.1534890313080074e-06
2.09389958801698e-06
1.8708948959380366e-06
1.6232390576001403e-06
1.4077210274740249e-06
1.2680975496137206e-06
1.2284330269889204e-06
1.1885909518539645e-06
1.164542731932036e-06
1.0617086645690715e-06
8.687287799956003e-07
6.263673123122818e-07
4.131988857855952e-07
2.926426988367489e-07
3.35582986702747e-07
5.123050776835504e-07
8.037495043283462e-07
1.1989669624236983e-06
1.6544919732130173e-06
2.1277362300563903e-06
2.5044839687279725e-06
2.601721941151223e-06
2.4037709837961687e-06
1.8803652138706801e-06
1.2953562600824206e-06
8.287619851324031e-07
6.358079177145162e-07
7.929439822479478e-07
1.2124958499899781e-06
1.7977824736182282e-06
2.4509688621491268e-06
3.032077114513364e-06
3.5688109608900063e-06
3.9695412085039755e-06
4.1868306584561725e-06
4.1714859300461025e-06
4.002739890675027e-06
3.6064756593046727e-06
3.001654706083338e-06
2.265505990080318e-06
1.4804995988331226e-06
7.508383585422072e-07
2.2902622416855929e-07
5.587672038875082e-26
5.23520999764049e-27
3.2892430226438194e-28
2.0601058556718697e-28
8.710773577000513e-10
1.9422305254762397e-09
2.7026431597675313e-09
3.894911246112713e-09
6.502775047365092e-09
1.089610915045919e-08
1.5170105731147213e-08
1.788170862346842e-08
1.948188814696005e-08
2.289878237550367e-08
2.931411436634841e-08
3.6328774004932956e-08
4.1750898765345045e-08
4.400814977902049e-08
4.765425207196395e-08
5.274981995848258e-08
5.961183547790339e-08
6.655308732638922e-08
7.151791865183783e-08
7.727576758314359e-08
8.018022757056626e-08
8.433385302371755e-08
9.330477772997225e-08
1.0209747896679997e-07
1.1246216485685411e-07
1.1433516859136134e-07
1.169951842149222e-07
1.2933397270465136e-07
1.4125416712925458e-07
1.5397937171579112e-07
1.6213405390194662e-07
1.6892002601573694e-07
1.826964966595414e-07
1.979853954027656e-07
2.1432966493274144e-07
2.378661665879661e-07
2.5363889273645586e-07
2.619577849860588e-07
2.846394663014199e-07
3.124219324938934e-07
3.395740820194127e-07
3.627156144969993e-07
3.7568606554858403e-07
3.9173399366423223e-07
4.178725877861552e-07
4.473384192336871e-07
4.6292280996795023e-07
4.7083771162169673e-07
4.794287228985393e-07
4.859450482550514e-07
4.94629453834402e-07
4.992142909415135e-07
5.001686019902269e-07
4.920691601608178e-07
4.7325530203783473e-07
4.5671514304190954e-07
4.4985753690482446e-07
4.4914553171544507e-07
4.2508245947902944e-07
3.806569806315418e-07
3.563978414689658e-07
3.486471866771687e-07
3.2882599648656584e-07
2.927988310672291e-07
2.5892237066745213e-07
2.3147643051383274e-07
2.0306473712787638e-07
1.8310380114540474e-07
1.638297284459655e-07
1.3126744984694196e-07
1.0820303734280685e-07
1.0369207270230581e-07
9.757060005202214e-08
8.457089308046882e-08
7.638371784788118e-08
7.517976004213326e-08
7.393558463017231e-08
7.187643766081275e-08
7.514494016817477e-08
7.71913589025815e-08
6.985677958231799e-08
6.560362709760242e-08
6.882223901437907e-08
6.750683534892599e-08
5.635176355425377e-08
4.281795696085857e-08
3.572682120150425e-08
3.487044699445888e-08
3.26973311298916e-08
2.771299255420425e-08
2.084674307090614e-08
1.6275501437639828e-08
1.6679276741464073e-08
1.8851764409076782e-08
2.0578254733644563e-08
2.1577724964086797e-08
2.2346332355165488e-08
2.8031240304454116e-08
3.556888063435743e-08
3.73758843352388e-08
4.0196176846403246e-08
5.401852043684044e-08
6.962653596213488e-08
6.891529221415496e-08
6.15426488282638e-08
7.168833719643238e-08
8.665529062027115e-08
7.964856734987407e-08
7.124827725114019e-08
7.437440097326104e-08
6.858123247044282e-08
6.023560242555094e-08
6.24166154466149e-08
6.120387607830265e-08
5.796020750087182e-08
6.18699852275764e-08
6.069468434232927e-08
5.8905680833386064e-08
7.040043300813307e-08
7.978312163949044e-08
7.07884792894866e-08
5.685914953773454e-08
6.060487360759866e-08
7.459295373096165e-08
7.619345251725951e-08
5.1384273284772414e-08
2.7530740120064234e-08
3.456359957629956e-08
5.2999833902536873e-08
4.5698002032801745e-08
1.8223549026569743e-08
1.7013189537974142e-08
4.7878728474734624e-08
6.652983703516545e-08
5.022087979321702e-08
2.512927095339587e-08
2.8665769147611653e-08
6.257627497688615e-08
7.616216305837722e-08
5.152282377582519e-08
2.333202149410726e-08
1.7056600070729167e-08
3.405553895095049e-08
4.382775514953043e-08
3.0558922551058735e-08
8.1943020116801e-09
3.762115060687797e-09
1.9001244978477814e-08
3.088329347883338e-08
2.4157442738840825e-08
6.834641960864519e-09
7.717983133293303e-09
3.052231131288356e-08
4.631031440203316e-08
3.9678388434798745e-08
1.2062487094270033e-08
2.623018384445029e-09
2.0401200807798543e-08
4.2413246854958915e-08
3.5519480235702604e-08
8.59229457589004e-09
9.081679834108238e-10
1.617028568151766e-08
2.5214583423857742e-08
1.329206569751496e-08
8.822053941015988e-10
8.18523209733768e-09
2.0658405363684805e-08
2.2736647030693453e-08
1.0767650614133506e-08
8.07104881973115e-10
5.649731643909012e-09
1.3747978253483281e-08
1.4340672094968554e-08
1.030385349041588e-08
7.58336970193151e-09
3.784823535267833e-09
1.8125526313148607e-09
9.617454828009567e-09
1.3845169571117944e-08
7.008654038516557e-09
1.694308995834926e-09
4.775177058877751e-09
9.84017910946179e-09
4.221733287401022e-09
1.2868937773856551e-09
6.05533461743607e-09
9.729152373384123e-09
6.7422798339525124e-09
2.1070089610776526e-09
9.980759255170262e-10
2.9899975584070136e-09
4.7547751124232516e-09
4.593444252426434e-09
1.9499379950523306e-09
2.92081372376434e-10
8.97669280867435e-10
2.298735505577614e-09
3.1594919262705345e-09
9.536189578285415e-10
1.541003012182773e-11
6.418784735805262e-11
2.366211400629234e-10
5.159000093798802e-10
9.950251078977275e-10
1.2445329545081188e-09
1.0548944810781066e-09
6.599129189897186e-10
7.332724518892023e-11
1.1637326039606499e-10
1.0525578346784262e-09
3.4580630179058175e-09
6.3451525916483905e-09
8.3168351129098e-09
6.811696171107424e-09
2.4990532504670015e-09
2.5293994036963444e-10
1.4928834602632567e-09
5.59228079143963e-09
8.97509031706895e-09
9.401290625488218e-09
6.992514956185017e-09
4.20934151715244e-09
3.826142114168603e-09
5.227205695312186e-09
6.096166294815914e-09
6.451693723178464e-09
4.27330137579929e-09
1.3851348190825886e-09
2.2223159628479614e-09
5.860910695648744e-09
1.0046519983867483e-08
9.55435829758216e-09
6.843223877116091e-09
3.618452503834924e-09
5.415357463271396e-10
1.3048256816006932e-11
4.962649810439902e-10
1.9501964282575256e-09
2.1091139683623285e-09
1.2416987063532837e-09
3.4610744473594296e-10
2.7710047667600906e-10
2.734889071704668e-09
5.6191638451223135e-09
7.207027730302067e-09
7.77639284724338e-09
8.85614044725355e-09
1.2371087250577474e-08
1.5634069435600532e-08
1.530721255658047e-08
1.2068116065488078e-08
5.834574059298809e-09
2.6087929244503453e-09
5.8439845049533975e-09
1.3412246805007476e-08
2.3104165352882025e-08
2.7563072180704176e-08
2.4421284211416772e-08
1.5705811491085037e-08
7.95355304169736e-09
8.30496945354092e-09
1.324065182671853e-08
1.952362139765462e-08
2.1419446124047738e-08
1.682250683600487e-08
1.4089455624237051e-08
1.4815172594482203e-08
1.6326846582645293e-08
1.9111778161571146e-08
2.2065963845453812e-08
2.181167619704286e-08
1.629179967986422e-08
8.448808955219498e-09
2.308161551351557e-09
3.94825980346609e-10
1.5451064352864748e-07
9.130879813225529e-07
3.12152449867958e-06
4.658087088044136e-06
4.7219426617806155e-06
3.952261516511316e-06
3.38235497688351e-06
3.1699676901580505e-06
2.6314611772306604e-06
1.8352350890974788e-06
1.4429109849419547e-06
1.7443465249576668e-06
2.257037068423153e-06
2.2301911013751607e-06
1.6818911603992956e-06
1.292848639498213e-06
1.1924551937593928e-06
8.746305678892737e-07
2.965435716832073e-07
5.534708364442025e-07
2.785610896104932e-06
6.1208134788319014e-06
8.277093255160954e-06
7.5066382711892795e-06
4.837921390325487e-06
3.203398492237777e-06
3.853765835042534e-06
5.5836802634776526e-06
6.16950782080399e-06
4.813584788585771e-06
2.7161167897746256e-06
1.3104340402869341e-06
8.240452079781347e-07
5.987881400514555e-07
3.0230383674094455e-07
2.795229432490252e-07
7.132442955256677e-07
1.2124973590013306e-06
1.4444642404875413e-06
1.5827323327576173e-06
2.1354341414236075e-06
3.2224929115503887e-06
4.038213273964015e-06
3.984309168329388e-06
3.150400590757882e-06
2.144971001446953e-06
1.6356759692657388e-06
1.744936171092365e-06
1.7961937921967933e-06
1.3932017561142864e-06
6.987245092350078e-07
1.9426533510489867e-07
6.222020978212447e-09
1.1105933945991319e-08
8.125967241681886e-09
9.562200828191253e-09
1.1161692523709232e-07
3.101604674048511e-07
4.6408639659664934e-07
5.148995216047622e-07
4.474440461829559e-07
3.7938767345589927e-07
3.7084162723581485e-07
5.091493235798874e-07
6.506750029101385e-07
7.230499273455049e-07
6.517603120706768e-07
5.210157923645416e-07
5.398067721635992e-07
7.046822646115179e-07
1.0063379772966902e-06
1.2837049588405212e-06
1.548263219698876e-06
1.738005728306543e-06
1.906305964698015e-06
2.1201143431385114e-06
2.410114333753132e-06
2.4589644009999234e-06
2.3227806456967973e-06
1.977253759505929e-06
1.6182732921926698e-06
1.3375919933741075e-06
1.1835812827217105e-06
1.165950779193706e-06
1.194061872116531e-06
1.244959178988106e-06
1.1999802051426848e-06
1.022824150495275e-06
7.224927848429362e-07
4.2380636270919895e-07
2.2331639283490765e-07
2.1874599950638776e-07
3.649498047317177e-07
6.41882878571027e-07
1.0265300975158266e-06
1.5330586202474124e-06
2.119250295985296e-06
2.6272410844014483e-06
2.827331043694547e-06
2.677132580416368e-06
2.0437010274562022e-06
1.330367265701953e-06
7.552539391016432e-07
5.026439563854883e-07
6.747945734643132e-07
1.132863700382843e-06
1.7471342285514134e-06
2.3940389316415404e-06
2.937938437435467e-06
3.429134131453061e-06
3.8144940564085745e-06
4.018098532401651e-06
4.0137348699777746e-06
3.881101853416205e-06
3.542753963073122e-06
2.966485095688194e-06
2.2814552378326366e-06
1.50227896619131e-06
7.711949649851417e-07
2.3572037065862374e-07
5.868612306425279e-26
5.509717107429365e-27
3.675270213045174e-28
1.7767513331589286e-28
1.1398344933868182e-09
2.217424535909438e-09
2.3880309006030403e-09
2.7419882355157616e-09
4.860975980763093e-09
9.861261614616616e-09