# vtk DataFile Version 4.1 
COMMENT
ASCII
DATASET STRUCTURED_POINTS 
DIMENSIONS 400 400 1 
ORIGIN 0 0 0
SPACING 0.002506265664160401 0.002506265664160401 0 
POINT_DATA 160000
SCALARS U double 1
LOOKUP_TABLE default
1.2281760365975742e-06
9.635323762414551e-11
3.957480181646862e-10
7.416873997667908e-10
1.020404004084959e-09
1.0745346191216052e-09
9.369842239507697e-10
6.324409719947345e-10
3.0188275095279765e-10
1.547274038344732e-10
1.7813055089957676e-10
3.6536852994338514e-10
4.30201717022764e-10
3.9293246366897145e-10
1.9844898244285437e-10
7.745904710150842e-11
1.8681697504182887e-10
5.542704129125969e-10
1.0534091214081129e-09
1.4312592335585444e-09
1.4901644397122368e-09
1.4337005939017523e-09
1.160919537247075e-09
8.095985042365807e-10
4.91817123068852e-10
2.385617794144376e-10
7.494046798915453e-11
3.5082672255293115e-11
1.1642941736763557e-11
8.992950673686606e-12
7.448703539183279e-11
2.4681348942530514e-10
4.557319929969768e-10
6.664815154608976e-10
6.360534921481996e-10
5.273865245071142e-10
6.939016012807739e-10
7.67068919062676e-10
6.723914150346874e-10
3.4094326553381163e-10
9.049593748912338e-11
2.0377429262783552e-10
7.819809832081573e-10
1.3510831743703185e-09
1.3582870476796126e-09
1.0835667025951553e-09
1.001797269963938e-09
9.53613993611259e-10
9.019495804295909e-10
5.185615816889672e-10
5.1129426233595443e-11
3.1352483307765014e-10
1.5505561142943351e-09
3.0249489305146275e-09
3.6014842261209914e-09
3.1192580608240992e-09
2.2737638810285905e-09
1.8331302929258597e-09
1.9119210709308997e-09
1.9667544987607865e-09
1.3351998578305016e-09
5.56268456726375e-10
3.392059976409769e-10
8.078604667383319e-10
1.3259549348625384e-09
1.5955322189761553e-09
1.5327171614155139e-09
1.4974582096129574e-09
1.4933663889204627e-09
8.966105565770963e-10
1.9423570685767665e-10
1.0499163946401515e-10
1.0228610369192829e-09
2.1606747576376125e-09
2.1094029320721307e-09
1.0202798308794154e-09
5.2915768465069824e-11
4.230843918595771e-10
1.675266785148523e-09
2.210864621670743e-09
1.3144962581626239e-09
3.016205478004516e-10
6.499545133781891e-10
2.3329226522235527e-09
3.666967061462259e-09
3.0917907541986893e-09
1.5497850211791048e-09
5.546958447207606e-10
1.0255525271299955e-09
2.0436461409107414e-09
2.2371022751821257e-09
1.514157228260649e-09
4.5795324846162817e-10
2.2005034308360038e-10
9.6075903235101e-10
2.1325280189154853e-09
3.2970678102222655e-09
3.381435521234679e-09
2.3815195899910535e-09
8.140157495669996e-10
1.1224426689218576e-14
7.975658736795173e-10
2.3781027836941814e-09
3.2645115099110353e-09
2.521239224904074e-09
1.5848468984202862e-09
1.415117744570786e-09
1.9887149919485906e-09
1.9114644810954308e-09
8.496329531884352e-10
1.4136726619101261e-11
6.442613188381419e-10
2.1150917188761744e-09
2.7446458044638094e-09
1.6728295426510592e-09
3.19288354820469e-10
8.761938101960637e-11
8.409723814348276e-10
1.1816582988957814e-09
5.916875383391129e-10
1.851777769196588e-28
2.578691462445336e-29
1.0186030735700635e-29
2.0057932024602885e-28
6.5443900154884e-10
1.2994090775895616e-09
9.724592627211345e-10
2.8345284293842153e-10
3.731107021491556e-10
1.085682558795582e-09
1.2668555859939044e-09
6.856118993369903e-10
5.010087531608563e-10
1.1728489092184703e-09
1.7776123291506463e-09
1.4137067717485098e-09
7.247071086081826e-10
9.35196313064286e-10
1.6802496039391114e-09
1.6962342100235554e-09
8.271625119640026e-10
2.8884509715262583e-10
8.44808203271494e-10
1.562293689729449e-09
1.318816630444091e-09
6.067178921291573e-10
6.514749842318309e-10
1.5097557378016672e-09
2.1349010739959935e-09
2.0047802160398417e-09
1.9286629262481017e-09
2.542756315491365e-09
3.2076558013652314e-09
3.1235510170234965e-09
2.555320852978593e-09
2.5517003892015735e-09
3.0909939793171676e-09
3.02213602577587e-09
2.1461889471383344e-09
1.283255904469937e-09
1.3016867151193682e-09
1.83512165543431e-09
1.9764818698198728e-09
1.8575758111974271e-09
1.854457866641567e-09
2.110786472462825e-09
2.102250148961067e-09
2.201276022060815e-09
2.881973191498499e-09
4.082217255860587e-09
4.4779713719826875e-09
3.6878896422638943e-09
2.470255811846586e-09
2.115962946631072e-09
2.5608825022323073e-09
2.751671734918968e-09
2.3388529767838127e-09
1.5088748027523672e-09
1.048625324474647e-09
1.2638829415876895e-09
1.953850057516973e-09
2.54608780754257e-09
2.753450840756986e-09
2.2068187273732143e-09
1.6967635890454781e-09
1.9722543388501453e-09
2.4986075970380846e-09
3.1910622997438563e-09
3.158136238999857e-09
2.4594091965706507e-09
1.6740872351853781e-09
1.0074476060441909e-09
6.533757849080766e-10
5.162445862713088e-10
3.619197032188916e-10
9.350230399859715e-11
4.166194238906073e-11
2.794368265433182e-10
4.944977568189193e-10
5.92761420206916e-10
4.493133213009211e-10
4.1226787618114165e-10
6.481639883822952e-10
8.946431041720215e-10
1.0605806481781972e-09
9.622204140985641e-10
6.205792029909848e-10
3.287255942730135e-10
1.5842273858110505e-10
1.0486815553741163e-10
1.0687532790520227e-10
2.426839441025489e-10
5.712521915676095e-10
1.078544691818668e-09
1.4819139026950453e-09
1.563049890883552e-09
1.332464625842807e-09
1.0515362704625307e-09
8.619703316332105e-10
8.975582532395892e-10
1.060296212131722e-09
1.3010262621052178e-09
1.1909858987004939e-09
7.054153787583675e-10
2.209254561566136e-10
1.569869341821143e-11
1.0505782850598826e-10
3.7487819557559257e-10
8.000442958078417e-10
1.3314279841785282e-09
1.7634853620861773e-09
1.9032181050382696e-09
1.8717149395483747e-09
1.8760445049212116e-09
2.239050190050194e-09
2.854022817181061e-09
3.1324158337064483e-09
2.6554743520790476e-09
1.912327459793996e-09
1.4408620642294917e-09
1.4663575505736358e-09
1.5207471155055465e-09
1.2335140926725592e-09
5.172777045175523e-10
2.826291907083151e-11
1.9259166904468236e-10
8.806115872272194e-10
1.3353538118929623e-09
1.0591611879928367e-09
5.966793791200843e-10
4.832022130761719e-10
9.143066801806461e-10
1.5515313555311472e-09
1.8298774063157271e-09
1.801259184840966e-09
1.704164361555918e-09
1.5447229358501716e-09
1.3539796437815504e-09
1.0436917700584911e-09
5.549475585610903e-10
1.938119147305425e-10
1.1218251439126337e-10
1.9344288371910768e-10
2.0285399119502824e-10
1.164533186869365e-10
5.916393988821223e-11
1.0662363943698512e-10
2.4551384303281595e-10
3.0180943435409347e-10
1.7189800327949224e-10
2.722958856907388e-11
1.41722757703655e-10
5.067443703557694e-10
9.242474183948844e-10
1.0466766834326912e-09
7.703628524855267e-10
3.3202262491706927e-10
3.9850070784367074e-11
5.273743058529064e-11
3.122552412004897e-10
5.64804799528185e-10
6.286048329382894e-10
5.189024831392163e-10
2.6872382537871783e-10
7.547867497525203e-11
1.878471427526268e-12
3.271190129133117e-11
1.0897723897160077e-10
1.7655947226872664e-10
1.9687889063340879e-10
1.560026687699835e-10
8.711022649681852e-11
5.843941194215727e-11
4.380899933050112e-11
2.8265699560536705e-11
1.6487956546696287e-11
3.273008712852046e-12
8.013705742932551e-12
4.6952113929266004e-11
1.382824947643044e-10
2.400408367304615e-10
2.89859455853651e-10
2.5271454044639697e-10
1.5540334078476575e-10
4.864221205433245e-11
1.9006076269823483e-11
9.710681889212463e-11
2.5576913130862624e-10
3.1644155780401e-10
2.8852152364770737e-10
1.4880964760756957e-10
2.7261041627069067e-11
4.198259299804711e-12
7.658021835852457e-11
1.4452579955055772e-10
1.687275308064636e-10
1.2916418771203285e-10
4.448434901120483e-11
2.419379946463102e-12
9.506377007924245e-12
2.5582598982829218e-11
1.0177474227407376e-11
5.5108789991180565e-12
7.650130503293212e-11
1.9375465458046734e-10
2.4806318842292894e-10
1.8356088641183905e-10
7.952832673876055e-11
1.5161908580319563e-11
5.598920567264242e-11
1.6603729429680704e-10
2.4993913861184526e-10
2.583704562441731e-10
2.8872269744696556e-10
2.702341723982335e-10
2.2181713856258818e-10
1.8268462615867465e-10
1.152810301565958e-10
3.868669441504118e-11
1.2596459876219616e-12
8.249326392203757e-11
3.1987883438726655e-10
5.689669811104655e-10
6.364553680370202e-10
5.90591922956637e-10
3.3989627787968836e-10
1.0503830078889835e-10
2.506010675172614e-11
8.537493763921843e-11
2.126807067500745e-10
3.224067401419687e-10
4.287663446333889e-10
4.826775582516019e-10
3.437898146638448e-10
1.7494494910679887e-10
2.5139425294608926e-11
2.1620583894927728e-11
1.2334276687204892e-10
2.2364178002941882e-10
2.6892539442094594e-10
2.96940974249494e-10
2.5545044510547127e-10
1.850406197250502e-10
1.4797413886380861e-10
9.360082660409686e-11
7.294693511038602e-11
7.01621952514598e-11
1.8591003944372471e-10
3.8675484258197856e-10
6.775991405962637e-10
8.495283329210495e-10
7.126129242531129e-10
4.2967681859502133e-10
1.143725221245336e-10
1.984740529745767e-11
2.569994509480469e-10
6.379104098340402e-10
9.772550318664578e-10
8.816405145285215e-10
5.89080151934685e-10
2.719520548959097e-10
9.570169193169745e-11
1.1415152062542082e-10
2.2830788103045986e-10
3.1729906369722595e-10
2.902437811204746e-10
2.4505348485198974e-10
2.2228938903374958e-10
1.5556780655918022e-10
9.157767704006461e-11
1.1569206485902383e-10
1.102643521835303e-10
5.2700961384122865e-11
3.6808933429104264e-11
2.6752679323449703e-10
7.505084850145251e-10
9.862294784451715e-10
7.953992663908533e-10
2.6850098823818757e-10
6.942957834885654e-31
8.942234614311114e-11
6.082676395024191e-10
2.4983147300747383e-09
4.68219288763971e-09
6.441700872831251e-09
6.783421631209834e-09
5.915080761237632e-09
3.992531923633576e-09
1.905753380543794e-09
9.76777480626637e-10
1.1245190342394785e-09
2.306532284094618e-09
2.7158172301804367e-09
2.4805404369712795e-09
1.252787110102493e-09
4.889906442202863e-10
1.1793554968120705e-09
3.4990495807054246e-09
6.650058633303889e-09
9.035385805183711e-09
9.40724804442964e-09
9.050797850795823e-09
7.328760340447163e-09
5.110908395601941e-09
3.104788670235557e-09
1.5060148887363728e-09
4.730911248128794e-10
2.21473141602214e-10
7.350064057744395e-11
5.677153164051297e-11
4.702286535306766e-10
1.5581070476916113e-09
2.8769871201145583e-09
4.207426218128499e-09
4.0153373753297046e-09
3.329334480888669e-09
4.38052627462759e-09
4.8424236926419926e-09
4.244734779336043e-09
2.1523382134751306e-09
5.712911329019364e-10
1.2864052212911616e-09
4.93656195183846e-09
8.529242955503198e-09
8.574720233912998e-09
6.840440204012501e-09
6.3242385589358825e-09
6.020062710845934e-09
5.693910819874956e-09
3.2736235647938994e-09
3.227745758325054e-10
1.9792485944835785e-09
9.788494199197625e-09
1.9096177678604672e-08
2.2735783072211428e-08
1.969154108819387e-08
1.4354027148461226e-08
1.1572354636674612e-08
1.2069752355043287e-08
1.2415909895094163e-08
8.428973284266714e-09
3.5116630166853356e-09
2.1413710278733355e-09
5.0999363515638335e-09
8.370611078597608e-09
1.007242351702232e-08
9.67587880581435e-09
9.453292830365025e-09
9.427461605849253e-09
5.6602061357763045e-09
1.2261891538950823e-09
6.628009424383044e-10
6.457211857196337e-09
1.3640107659769442e-08
1.3316434132250314e-08
6.440916980722509e-09
3.340515624628968e-10
2.670886320920591e-09
1.0575779268715936e-08
1.3956950880351883e-08
8.298273683405275e-09
1.9040981202071392e-09
4.103093029200124e-09
1.4727490116576436e-08
2.3149169177993686e-08
1.951814293182158e-08
9.783626371186828e-09
3.50173528601333e-09
6.474202945794735e-09
1.2901318572802128e-08
1.4122586368696406e-08
9.558711941391273e-09
2.8910096672705326e-09
1.3891541795541826e-09
6.06516857293782e-09
1.346242032155062e-08
2.081403493701329e-08
2.1346639234420762e-08
1.5034277364745417e-08
5.138793990901999e-09
7.085860003637304e-14
5.034947691359705e-09
1.5012707433603686e-08
2.060851051012801e-08
1.5916312412204847e-08
1.0004968236098616e-08
8.933486319014527e-09
1.2554544129739812e-08
1.2066869952455794e-08
5.363641571602894e-09
8.924363667398869e-11
4.067152503593596e-09
1.3352346832292904e-08
1.7326654152128453e-08
1.0560393218621695e-08
2.015633088167128e-09
5.531317408902859e-10
5.308968312382924e-09
7.459681915116712e-09
3.73525987442626e-09
1.169007415138484e-27
1.627900221666865e-28
6.430331791934596e-29
1.2662357038273292e-27
4.131403121327789e-09
8.203029933011323e-09
6.139030870504112e-09
1.7894073508661992e-09
2.3554077856174136e-09
6.853797376934707e-09
7.997523237245758e-09
4.328194276680692e-09
3.1628144437030983e-09
7.404069184329424e-09
1.1221875694729152e-08
8.924578999144734e-09
4.574998133464453e-09
5.903793871856659e-09
1.0607235268519935e-08
1.0708144369771803e-08
5.221788089777202e-09
1.8234480725206741e-09
5.333183443619534e-09
9.862592252147833e-09
8.32554772955275e-09
3.830144883442975e-09
4.11269159838038e-09
9.530925804902315e-09
1.3477401163376206e-08
1.2655962163809217e-08
1.2175441889362927e-08
1.60521474938608e-08
2.024958652913739e-08
1.9718642059560086e-08
1.6131466069419287e-08
1.6108610470480904e-08
1.951311297757875e-08
1.9078420113132273e-08
1.3548660294056148e-08
8.101056686172696e-09
8.217408414088439e-09
1.1584925894291647e-08
1.2477317743741185e-08
1.1726676567749332e-08
1.1706993318676886e-08
1.332516827412614e-08
1.327127938077418e-08
1.3896419080957494e-08
1.8193587195691204e-08
2.5770599051838374e-08
2.8268952277663284e-08
2.328125118323105e-08
1.5594459601869347e-08
1.335784679952813e-08
1.6166576163762907e-08
1.737100809641351e-08
1.4764927618529647e-08
9.525364556560228e-09
6.6198590371063136e-09
7.97875725241086e-09
1.2334445543630531e-08
1.607317884533352e-08
1.738223940046931e-08
1.3931409584234425e-08
1.0711486282674856e-08
1.2450629794822324e-08
1.5773441376424595e-08
2.0144833535764333e-08
1.9936974850984167e-08
1.552598608470306e-08
1.0568332896497955e-08
6.359908523689296e-09
4.124691148878254e-09
3.2589966215983378e-09
2.2847602114327345e-09
5.902700017525091e-10
2.6300736725560014e-10
1.7640546707374688e-09
3.1217112231640267e-09
3.7420391753085104e-09
2.8364667351480404e-09
2.6026028192802266e-09
4.091789637227237e-09
5.6477858200736145e-09
6.695331711486107e-09
6.0743941189383e-09
3.917649850024607e-09
2.0752093671460497e-09
1.0001057319540398e-09
6.620214016734718e-10
6.74692465234335e-10
1.5320376716371248e-09
3.6062537252857065e-09
6.808736789411269e-09
9.355163290457483e-09
9.867366068807629e-09
8.411706058528681e-09
6.6382355264535224e-09
5.441526116526281e-09
5.666188843011401e-09
6.693536097276922e-09
8.213239045151539e-09
7.518566050775622e-09
4.4532115151108525e-09
1.394678674385336e-09
9.910416530076944e-11
6.632187867506978e-10
2.3665657817662166e-09
5.05059370404033e-09
8.405161851051187e-09
1.1132693669075255e-08
1.2014811466177359e-08
1.1815935366298489e-08
1.1843267447444322e-08
1.413488334602656e-08
1.801713948486703e-08
1.977460469508038e-08
1.6763724351423033e-08
1.2072317844284448e-08
9.096007443737716e-09
9.256957710474076e-09
9.600313191726805e-09
7.787041971227792e-09
3.2655185861162363e-09
1.784207722808738e-10
1.21581051977317e-09
5.5592063607725575e-09
8.429945179726317e-09
6.6863708118048246e-09
3.7667728290864615e-09
3.0504036688076416e-09
5.771919863286555e-09
9.794650792371738e-09
1.1551819512908117e-08
1.1371155754715438e-08
1.0758206564591901e-08
9.751669970240544e-09
8.54752805577698e-09
6.588714038006462e-09
3.503324328449917e-09
1.223513799717394e-09
7.081961634584472e-10
1.2211841465810433e-09
1.2805954571984585e-09
7.351572922358662e-10
3.7349559752050957e-10
6.731035829691678e-10
1.5499025196151297e-09
1.9052905407313526e-09
1.0851736305723657e-09
1.7189746781671266e-10
8.946805464746834e-10
3.1990227789730395e-09
5.834674675865589e-09
6.607557475518405e-09
4.863217940528206e-09
2.096023167457045e-09
2.515692164342696e-10
3.329257345837103e-10
1.9712337973341123e-09
3.5655520318764477e-09
3.968314789822578e-09
3.2757756390319754e-09
1.6964246451041097e-09
4.764887677055262e-10
1.1858588349166288e-11
2.0650671915904496e-10
6.879616040233137e-10
1.114600983597655e-09
1.242875289158199e-09
9.84828091184104e-10
5.49917503077892e-10
3.689217304209991e-10
2.76561507104451e-10
1.7843832521372113e-10
1.0408669865354049e-10
2.066215243958203e-11
5.0589663576588006e-11
2.9640365195415573e-10
8.729625360685439e-10
1.5153520187020112e-09
1.8298516100446353e-09
1.5953597489364255e-09
9.810445979892186e-10
3.0707305987869054e-10
1.199833179861038e-10
6.130249171025236e-10
1.6146430529460075e-09
1.9976615643860725e-09
1.8214053877402211e-09
9.394193212118948e-10
1.7209602759335968e-10
2.6503160010799244e-11
4.83442692763721e-10
9.123758485702176e-10
1.0651587784010334e-09
8.153996430749655e-10
2.8082491709719867e-10
1.5273285728447794e-11
6.00127369397405e-11
1.615001994673297e-10
6.424930160157337e-11
3.47895871797564e-11
4.82944521415596e-10
1.2231523225404709e-09
1.5659962632293227e-09
1.1588001590381559e-09
5.02053784302113e-10
9.57155002769866e-11
3.5345384142628266e-10
1.048175604282742e-09
1.5778389352699596e-09
1.6310649378472298e-09
1.8226753763261967e-09
1.705959303606961e-09
1.4003077696357075e-09
1.1532684221819311e-09
7.277567606632003e-10
2.4422494637680534e-10
7.952009817130407e-12
5.207711142664665e-10
2.019360722246964e-09
3.5918274371317427e-09
4.017874374649016e-09
3.7283433722003495e-09
2.145728692875045e-09
6.630955103702453e-10
1.5820176213498856e-10
5.389628109129579e-10
1.3426304569775614e-09
2.035319119745711e-09
2.7067558784643914e-09
3.047091579255037e-09
2.1703081723758075e-09
1.1044086722976587e-09
1.587024915763415e-10
1.3648842379050607e-10
7.786496386101455e-10
1.4118265352250558e-09
1.6976971288165005e-09
1.8745564750283614e-09
1.612631221176625e-09
1.1681415565014261e-09
9.341448442572795e-10
5.90891964378391e-10
4.6050616588115045e-10
4.429264022698354e-10
1.1736301097981804e-09
2.4415417786077333e-09
4.2776105914273105e-09
5.3629811150924955e-09
4.498648846707097e-09
2.7125036027871687e-09
7.220214470426335e-10
1.252945377676348e-10
1.622409928676983e-09
4.027059897222767e-09
6.169306045989167e-09
5.565701868305208e-09
3.7187997241230747e-09
1.71680411129137e-09
6.041545015306647e-10
7.206262883172341e-10
1.4412831296433411e-09
2.0030749069824107e-09
1.8322778141724493e-09
1.5469963278681625e-09
1.40328903613417e-09
9.820828527572863e-10
5.781200384938179e-10
7.303515785890363e-10
6.960870114771526e-10
3.3269550843401507e-10
2.323708429690818e-10
1.6888679097548108e-09
4.737879451306818e-09
6.225960763265702e-09
5.021270132268798e-09
1.6950178981716142e-09
2.571302538899144e-10
3.1440760967801184e-10
2.0835941486556573e-09
8.23634010029028e-09
1.5072863271506417e-08
2.1216902766506474e-08
2.1929844420861944e-08
1.857624399437839e-08
1.2986784690370776e-08
5.3479228996888705e-09
2.7011464983529126e-09
3.3171329717300564e-09
7.730277280138993e-09
9.07940705117255e-09
8.148106609010694e-09
4.042086700115528e-09
1.1567252287361642e-09
3.481133655402512e-09
1.1060127076414353e-08
2.106003534760031e-08
2.8229958876167994e-08
2.8716917992090488e-08
2.7208862579137067e-08
2.1526847895290028e-08
1.4458213215013566e-08
7.861187032801498e-09
3.0805764944008345e-09
4.0867176912650955e-10
1.560906929110175e-10
1.1265302457939553e-10
2.8504165742166943e-11
1.3658133108813768e-09
5.5288399500442555e-09
1.059266346269933e-08
1.4577175559617569e-08
1.3539343557085284e-08
1.0358262017516757e-08
1.2205641430434124e-08
1.473775823142814e-08
1.4483502191818162e-08
8.06604367239536e-09
2.527322186008218e-09
4.83783725717812e-09
1.670150270521554e-08
2.7519611104869044e-08
2.6571443816056273e-08
1.9422200201461345e-08
1.777778894604815e-08
1.945549824566325e-08
2.150532768229381e-08
1.2975125334512813e-08
1.7763254250372777e-09
6.228779139536265e-09
3.319616887312696e-08
6.51431348394301e-08
7.69860389853562e-08
6.300502730727675e-08
4.2043317153326595e-08
3.3581524213136965e-08
4.031619097666903e-08
4.398267087490369e-08
3.131617417554638e-08
1.3113503590915894e-08
8.002852367468477e-09
1.9125739500410603e-08
3.022519193838825e-08
3.503285118880342e-08
3.181862888738786e-08
3.213554138500485e-08
3.281494551491112e-08
2.1617896570936303e-08
4.70114989413685e-09
1.601457490626961e-09
2.36113795107606e-08
5.270942906479645e-08
5.260771201109946e-08
2.7172578445024247e-08
1.8527066564479447e-09
1.0022337066415349e-08
4.0867103514858417e-08
5.54043706963406e-08
3.447498395175223e-08
7.427476758867231e-09
1.2043039096869192e-08
4.943336952589268e-08
8.007455615225397e-08
6.784221034593798e-08
3.036075946254736e-08
8.186663681290115e-09
1.9350197283134938e-08
4.283225928545021e-08
4.6499292861407366e-08
2.9779312689879598e-08
6.892423770890057e-09
2.014493720039939e-09
1.6670770539412455e-08
4.126648086327333e-08
6.714121929864206e-08
7.297971739021256e-08
5.339189233943396e-08
1.9765715931635678e-08
4.905309095244281e-10
1.780894726318738e-08
5.3410058916963006e-08
7.160743433201326e-08
5.1936045488361836e-08
2.9640116875587364e-08
3.192325925714776e-08
5.053757421133741e-08
5.2768440269191406e-08
2.458514236174306e-08
9.232576039925306e-10
1.4017867867152422e-08
4.87102409772569e-08
6.451031851759092e-08
3.8457386497901314e-08
6.3771019062361775e-09
3.259549230769228e-09
2.3860424833741216e-08
3.1901263066593456e-08
1.5891619368672985e-08
3.650272467700367e-27
5.237036176191747e-28
2.1256810958235224e-28
3.9934288584604025e-27
1.831299684846466e-08
3.614888436532987e-08
2.7015866433096862e-08
7.263587562491106e-09
9.45074817325522e-09
2.9100440325483743e-08
3.4153072842158065e-08
1.8309428733403278e-08
1.2395014434824768e-08
3.022446649876674e-08
4.603037184564391e-08
3.63897862010331e-08
1.8744227196126133e-08
2.532704496813652e-08
4.6362080634627935e-08
4.64552027334719e-08
2.292007711123863e-08
8.60642027854017e-09
2.3340432638321562e-08
4.1722968401184105e-08
3.474630681619911e-08
1.6575462642427662e-08
1.918599900162125e-08
4.258628992655077e-08
5.7057644903157826e-08
5.151197250825955e-08
4.9229392659181755e-08
6.778565245477489e-08
8.784938130192296e-08
8.415059122600399e-08
6.690443784175252e-08
6.588257870280638e-08
8.031407863400167e-08
8.008202463343318e-08
5.734926018445028e-08
3.537475275504392e-08
3.523362922603655e-08
4.762172226845736e-08
4.983901258140371e-08
4.732713488904808e-08
5.030631381156583e-08
5.924423827128378e-08
6.021685012554787e-08
6.224094945504977e-08
7.805663430004511e-08
1.0858602010023185e-07
1.1887904821033312e-07
1.0057743775781694e-07
7.049007224735211e-08
6.284527690027279e-08
7.282288481862466e-08
7.550133196191177e-08
6.194919089326408e-08
4.073862820850463e-08
3.0253959353642275e-08
3.6084302952980236e-08
5.196157065347175e-08
6.446108191567982e-08
7.010982648749856e-08
6.066265053582592e-08
5.100785426987397e-08
5.744042423568618e-08
6.900488624720392e-08
8.476775783483656e-08
8.230278725426587e-08
6.544517352778094e-08
4.6216888745241637e-08
2.9429673033180144e-08
2.0408083996056142e-08
1.5233744243285995e-08
1.0241016353134394e-08
3.4925247810517614e-09
1.6343143315697237e-09
7.939816890468616e-09
1.436278631955594e-08
1.75692725878743e-08
1.493977828108739e-08
1.4524424856492544e-08
1.996812189795656e-08
2.5310513768084048e-08
2.9436484774027907e-08
2.716683700189434e-08
1.8341639008119327e-08
1.0636652537517812e-08
5.164933703264616e-09
2.5145171027953452e-09
2.299531974372713e-09
5.799522055068066e-09
1.3029713116170482e-08
2.466256286233346e-08
3.577937864291572e-08
3.8791834529078445e-08
3.317119798280416e-08
2.7617716041568233e-08
2.3907141286639032e-08
2.489958761645829e-08
2.754659488171273e-08
3.164334442079707e-08
2.8349863134279867e-08
1.6690261249274457e-08
5.333678875973707e-09
6.107612488796623e-10
1.4933837557263445e-09
6.68588498422415e-09
1.6172024981329517e-08
2.9736193763215898e-08
4.138670655469497e-08
4.528974242917953e-08
4.53964651145638e-08
4.772760079516172e-08
5.9129337174580986e-08
7.326740606566495e-08
7.764522520722277e-08
6.527790198008121e-08
4.670135523234192e-08
3.456830671292108e-08
3.51276180174537e-08
3.813068525704995e-08
3.203404034000755e-08
1.3508864330642807e-08
7.783749526843064e-10
4.280642292436859e-09
2.0183921279700158e-08
3.00090214698922e-08
2.3501574889539745e-08
1.4130181003142894e-08
1.4142912864797379e-08
2.544518037639207e-08
3.9521690356794115e-08
4.539856182924088e-08
4.352775417075634e-08
4.025230647619251e-08
3.7045673444672774e-08
3.4124102202576004e-08
2.681473851224344e-08
1.4251914766503014e-08
5.196222538991667e-09
2.767340973371518e-09
4.373409378662096e-09
4.5057686421732715e-09
2.682165295533943e-09
1.6308006229556566e-09
3.6955240987395357e-09
7.423819923640947e-09
8.679788921344312e-09
5.054404792063387e-09
8.972097102183699e-10
3.884013417449911e-09
1.3621080770637419e-08
2.4833374236227323e-08
2.6358550245698103e-08
1.8900650193225383e-08
7.997133135938812e-09
9.625734020723624e-10
1.6870825895909946e-09
8.55364638661565e-09
1.4841858875250436e-08
1.5705055437150414e-08
1.2916471196696022e-08
6.369555533987916e-09
1.6473440891703162e-09
6.924761871300442e-11
8.312592590013909e-10
2.297819605897698e-09
3.855729361044368e-09
4.722322192715801e-09
3.8930864435026145e-09
2.5934988347045535e-09
1.6989708679965215e-09
1.204965520925306e-09
8.605119240368641e-10
3.6876483596522636e-10
1.8160753921461024e-10
4.2498241274578685e-10
1.420312734374619e-09
3.312023370113331e-09
5.675952474240687e-09
6.569585999747756e-09
5.29404950264892e-09
3.1806638604344935e-09
9.234493988978025e-10
3.2467343666374986e-10
2.1754507213635223e-09
5.632615844018595e-09
6.946728989679166e-09
6.260933733134771e-09
3.045319307057423e-09
5.112945005972604e-10
7.295619851486507e-11
1.5952349459596003e-09
3.2190997773575956e-09
3.689418808297442e-09
2.9162635597274652e-09
9.713363873061707e-10
8.569906750090864e-11
1.9125161157892607e-10
7.616072404635305e-10
2.5789481412601303e-10
2.2183915521637878e-10
1.7641789871746365e-09
4.613076507832785e-09
5.36808421092107e-09
3.6665287446522295e-09
1.3115225078781813e-09
3.8079051523891396e-10
1.538264090262394e-09
3.935789817526e-09
5.062142322888828e-09
4.294261480194385e-09
4.538992135738163e-09
4.079572260124286e-09
3.519584386259771e-09
3.3731297167816424e-09
2.477432654256679e-09
1.0812640947568062e-09
2.627830875112438e-11
1.1111548009303128e-09
5.225335584764111e-09
1.0106515769071547e-08
1.2116652555787106e-08
1.1151990751723231e-08
6.7321654982694415e-09
2.16527488015556e-09
5.543906236366419e-10
1.497971437637443e-09
3.948187888580942e-09
5.808403497214869e-09
8.064216809068507e-09
9.457227034823268e-09
7.046545854099774e-09
3.284177508757346e-09
4.117474139567932e-10
5.337137998500823e-10
2.8215719596406622e-09
4.1337311121704294e-09
4.950747706199251e-09
5.2401378882388005e-09
4.573323216243069e-09
3.6616560006384506e-09
2.923092474962246e-09
2.2903224776529316e-09
2.0224732165609187e-09
1.658433644125466e-09
3.2944332779213227e-09
7.220339630476956e-09
1.2969164990662185e-08
1.721087629222947e-08
1.5227501341702457e-08
9.400443736151236e-09
2.702460874039704e-09
3.39037292398805e-10
4.82395088889214e-09
1.253545154027549e-08
1.9582693265213383e-08
1.737688467669891e-08
1.1094118615178944e-08
5.041661039067976e-09
2.1255217539923935e-09
3.4859233833746505e-09
5.522947535184825e-09
6.583976067911606e-09
5.394084668694527e-09
4.8540017696858494e-09
4.4015865885550174e-09
2.926799670976273e-09
1.438668610764773e-09
2.534372538263156e-09
2.9868789641951547e-09
1.8051806477151997e-09
5.133816613633915e-10
5.2479003107434935e-09
1.6550650495611492e-08
2.3434596649397626e-08
1.852052790046639e-08
6.438372226265896e-09
9.684802108701893e-10
5.230750362279479e-10
3.4067150893766837e-09
1.340821548115542e-08
2.4112588277220056e-08
3.272268622012119e-08
3.249914828341622e-08
2.5536566897659696e-08
1.667743610570258e-08
5.8097314646534955e-09
2.602936012595334e-09
5.219092869625974e-09
1.2036369579799493e-08
1.406009077309529e-08
1.2476018235961883e-08
5.301838107432101e-09
1.2717706350358375e-09
5.4050818760469645e-09
1.7243110257210213e-08
3.11463762070919e-08
3.927306054703195e-08
3.6433785401451485e-08
3.2237821026427216e-08
2.4823796758643212e-08
1.636547248519168e-08
8.655435782239409e-09
2.8346427735779083e-09
1.6526487145390787e-10
6.27272632530099e-10
1.125709801819534e-09
2.760628102949845e-10
1.1686331050625599e-09
7.94513187373487e-09
1.7062611809805082e-08
2.4087095026874747e-08
2.1217054105581864e-08
1.4808663227834933e-08
1.7798994084821238e-08
2.3897589128944e-08
2.6895397903913074e-08
1.69502962301646e-08
5.188193651013585e-09
7.2017134361839515e-09
2.6453230156703497e-08
4.468203099331641e-08
4.149960810616822e-08
2.584850942486529e-08
2.086962597286365e-08
2.8185992620881426e-08
3.8144605761021415e-08
2.6264789610555162e-08
5.968791904410093e-09
1.0541831641950836e-08
5.406168724796949e-08
1.0625927902648233e-07
1.2492241776876905e-07
9.399509588576238e-08
5.526572392442601e-08
4.805155706898804e-08
7.076555831768935e-08
8.56426598061256e-08
6.208994168848878e-08
2.624312538530368e-08
1.4478852774803835e-08
3.631917125482828e-08
5.677269912622906e-08
5.949180250598316e-08
4.605195988729063e-08
4.315275134178407e-08
4.822000298679888e-08
3.5343494110491365e-08
8.824788660405405e-09
2.4142994023169884e-09
4.0766352351269906e-08
9.390942050559947e-08
9.64388891181643e-08
4.8494768445212856e-08
3.727791174965139e-09
2.3406233910939005e-08
8.729756006056275e-08
1.155499034084751e-07
7.175524868534457e-08
1.3856747611427363e-08
1.7247502847185115e-08
8.331440037010562e-08
1.3779196931352595e-07
1.1251344935671027e-07
4.39026640133469e-08
6.109927669588155e-09
2.8550323793967185e-08
6.849318347197697e-08
7.019395684395417e-08
4.0171084999891924e-08
6.198671931654266e-09
1.3232039215227763e-09
2.0581625439713588e-08
5.349158494189918e-08
9.69104099794075e-08
1.1774648429486899e-07
9.622497916230105e-08
4.146813854324432e-08
3.375038014436265e-09
3.30753186212411e-08
1.0014209730796152e-07
1.3022554777741712e-07
8.500070186259648e-08
3.644204323214211e-08
4.61748942137548e-08
9.771423775999879e-08
1.1430332826468011e-07
5.992264180527754e-08
4.245004451680576e-09
2.174479771809813e-08
8.968651723659701e-08
1.2026860792776282e-07
7.131845756876858e-08
9.501373768860975e-09
9.806506470274007e-09
5.676050432651427e-08
7.389916250597121e-08
3.5930667859006925e-08
8.374772019373567e-27
1.2258375336134524e-27
5.051421210774332e-28
9.127258981080005e-27
4.116778423771883e-08
8.139355165443447e-08
6.043401857763365e-08
1.5617271895899863e-08
2.066683244315941e-08
6.473228890177268e-08
7.576176699634868e-08