# vtk DataFile Version 4.1 
COMMENT
ASCII
DATASET STRUCTURED_POINTS 
DIMENSIONS 400 400 1 
ORIGIN 0 0 0
SPACING 0.002506265664160401 0.002506265664160401 0 
POINT_DATA 160000
SCALARS U double 1
LOOKUP_TABLE default
5.123269260238147e-07
5.443113276682026e-08
1.534483280699104e-07
1.8043052990317887e-07
1.1220102420123561e-07
5.6899813945733425e-08
1.1249492007917575e-07
2.202769725233094e-07
2.600819862772074e-07
2.009249249835735e-07
1.532545379528385e-07
2.0973018310602781e-07
3.2087317217568957e-07
3.759115578410772e-07
3.4045585452635804e-07
3.147956911632123e-07
3.669709840619377e-07
4.7575846821085977e-07
5.304345927493916e-07
5.158403453314636e-07
5.110125469536704e-07
5.68393827664929e-07
6.848572087177851e-07
7.479998328062427e-07
7.634862399289047e-07
7.739284158291365e-07
8.534949399723542e-07
9.410317345379752e-07
1.0056195963365447e-06
1.0327833786359108e-06
1.0899343710541224e-06
1.2176257247114098e-06
1.3453712635889315e-06
1.4362664498137078e-06
1.4647772923962705e-06
1.5249224402437853e-06
1.6165037031600548e-06
1.7542681333105638e-06
1.8152548800404736e-06
1.9154304893690623e-06
2.0182892631542645e-06
2.177815716797188e-06
2.2508607814959427e-06
2.2984286837980866e-06
2.284011276479587e-06
2.367389804506115e-06
2.4368514854324256e-06
2.5367290967992716e-06
2.558101839929487e-06
2.637123486488063e-06
2.6373523466744945e-06
2.6580369349319693e-06
2.6201159273945958e-06
2.663158183226839e-06
2.71059694487517e-06
2.850671462782652e-06
2.8595676071361314e-06
2.818753693364104e-06
2.703024298817047e-06
2.5940365522765695e-06
2.4076234438371905e-06
2.2721207368179463e-06
2.2388747009565628e-06
2.2589907768563248e-06
2.2641991812049334e-06
2.1824131077755458e-06
2.1172630055769023e-06
1.965676940985056e-06
1.8675661907395829e-06
1.7737804411025617e-06
1.7826698087941525e-06
1.7211176963117333e-06
1.677833184526169e-06
1.5704632640620858e-06
1.4659101366008936e-06
1.3873501937516425e-06
1.3376433977305838e-06
1.3514947448541473e-06
1.300419621965583e-06
1.2614697317588705e-06
1.131614165235213e-06
1.0386342067719567e-06
9.531074362873908e-07
9.301942531580763e-07
9.096941305902973e-07
8.297002860999652e-07
7.454749556143139e-07
5.953948788114045e-07
4.99690196720777e-07
4.1758440705379354e-07
3.886065836050495e-07
3.716323816923911e-07
3.1466691912593193e-07
2.603445771476819e-07
1.8323236067366234e-07
1.6413047275145372e-07
1.702718707739788e-07
1.9810593661439987e-07
2.1639718775799972e-07
1.753670940642274e-07
1.3320084390868542e-07
8.60560723112731e-08
7.974243262557003e-08
1.0088454577019435e-07
1.0915652013594799e-07
1.1122420008764062e-07
6.812498111319496e-08
2.189325657881014e-08
1.306642522220174e-08
2.582102598301485e-08
5.779430674031731e-08
6.220162626156167e-08
3.5073725563996294e-08
1.1072736192552912e-08
1.5818930183865507e-09
2.3644566407919995e-08
5.530589445343046e-08
6.241089691893404e-08
4.9000700663313956e-08
2.1563218301794146e-08
6.206187902947323e-27
5.6403579358569825e-28
5.254737358823637e-29
4.0568953833336096e-30
1.5608177927371958e-13
3.3330678927287997e-12
1.1444550309911323e-11
2.8178808885938156e-11
4.764187652726404e-11
7.102252557687398e-11
8.685364915991253e-11
1.144141963964024e-10
1.1795455949046815e-10
1.3047175323952324e-10
1.2242679913352833e-10
1.4106480203533407e-10
1.416636291559118e-10
1.7161979690571946e-10
2.131559937146913e-10
2.825345985306737e-10
3.7641715341098906e-10
4.439310949351207e-10
5.886936764090447e-10
6.501605212614684e-10
7.598839765775106e-10
7.83312902839921e-10
7.887801158662986e-10
8.071461833793756e-10
7.162082215246165e-10
6.845943840280546e-10
5.714488523345474e-10
5.451879085204072e-10
5.344440956432915e-10
5.249370364108171e-10
6.587445727293458e-10
7.367580928626044e-10
9.921716987093137e-10
1.2506205874528583e-09
1.4258069558965379e-09
1.7870611935921368e-09
1.9885472824768505e-09
2.199456520333375e-09
2.477209922882912e-09
2.443724533290296e-09
2.495191078755586e-09
2.5239414797846475e-09
2.2513455546803743e-09
2.17999966415025e-09
2.0413911682277272e-09
1.5850549745418294e-09
1.3927490042616304e-09
1.2535206938380907e-09
8.892890981351626e-10
7.566353339838908e-10
7.668093923509259e-10
6.721248056185873e-10
6.559518834140621e-10
7.398264294713194e-10
9.89531216914539e-10
1.3134203587568329e-09
1.3187693796369621e-09
1.3556445244611267e-09
1.873443797394402e-09
2.2736896767213365e-09
2.2660494349231827e-09
2.3935361922384824e-09
2.6316473765299033e-09
2.717127321893373e-09
3.0130283332988125e-09
3.549200031213148e-09
3.749341083075249e-09
3.540381373940872e-09
3.2810573937259002e-09
3.005797863035826e-09
2.8695546542341416e-09
3.5336734664617786e-09
5.1765910772889805e-09
6.941428920801623e-09
8.03739765904322e-09
8.436823464424967e-09
8.09921849839396e-09
6.855946728771676e-09
5.32788080598942e-09
4.436286786568445e-09
4.001507493082829e-09
3.2669891889767817e-09
2.362328736828063e-09
1.91356560933518e-09
1.9255213251243933e-09
2.124811328469644e-09
2.5922442455001377e-09
3.28984911471553e-09
3.72202998549508e-09
3.6012940178342482e-09
3.3065391217489984e-09
3.328981553352345e-09
3.6062641042917827e-09
3.716444017169069e-09
3.5371451435735375e-09
3.278622673815421e-09
2.910426104039326e-09
2.1742684585340146e-09
1.2853578379651676e-09
9.059934809457325e-10
1.2119632736859024e-09
1.6771329778559251e-09
1.9032467410416966e-09
1.9376465458449874e-09
1.7548917996816706e-09
1.2081362482323193e-09
5.127876701425828e-10
9.66040797690032e-11
1.4250204199485057e-11
3.586231360287472e-11
1.1161756275819044e-10
2.7914184827151047e-10
4.101383412375975e-10
4.735156934609435e-10
7.057349369357951e-10
1.1649018757709002e-09
1.514199344505097e-09
1.5610095846764773e-09
1.56683536717573e-09
1.7136373493739116e-09
1.727750200219204e-09
1.375928519467328e-09
9.079861695360323e-10
6.481003254012777e-10
5.12756359591464e-10
2.8559361468042784e-10
5.2381323509809175e-11
1.0793562057943044e-11
1.1158045577136123e-10
2.35426088892351e-10
5.078083285359681e-10
1.081653516826679e-09
1.7669735519556058e-09
2.2397111893488844e-09
2.524450248480899e-09
2.90281952281019e-09
3.362883141298365e-09
3.5124113807592937e-09
3.1334874158011317e-09
2.5094040183157583e-09
2.0255110823981763e-09
1.6816806721957977e-09
1.2302661916291882e-09
6.453443273804015e-10
1.8265591245564144e-10
1.0079771112471873e-11
3.5286471473071216e-11
1.5809598387663316e-10
4.738199534522298e-10
1.0737168803084383e-09
1.773630812799312e-09
2.24026222853759e-09
2.374393014212588e-09
2.4016270966777726e-09
2.5269516391424045e-09
2.6263506636182834e-09
2.3962391711798195e-09
1.7577179399850031e-09
9.877780926202016e-10
4.2987377564672744e-10
1.709918458720526e-10
6.788176515752067e-11
2.74519463776011e-11
1.4601880132881593e-10
5.395115633823429e-10
1.1090445947240995e-09
1.55689215357778e-09
1.646235446263997e-09
1.4071318522200926e-09
1.0683449069709217e-09
8.134350939159673e-10
6.364680022100578e-10
4.3108209653511476e-10
1.7975329229326235e-10
1.80655476392618e-11
1.0534033705508926e-10
4.445601100131188e-10
8.400558836700799e-10
1.0367603248476126e-09
9.128062902368559e-10
5.60514377738303e-10
2.018765484147395e-10
2.3874424754559423e-11
6.605957248288634e-11
2.2873828017045418e-10
3.690985808608047e-10
3.9955379766634767e-10
3.238555094958007e-10
2.0625035371078503e-10
1.1397944721861634e-10
7.746372563814528e-11
8.631281677353498e-11
1.1058021815696766e-10
1.2509496136498325e-10
1.2133424298030481e-10
1.0494733430986184e-10
8.635152700650762e-11
7.278321724661893e-11
6.570985271931579e-11
6.26599717706939e-11
6.040121999394682e-11
5.704052841024279e-11
5.238008527137887e-11
4.717438380050588e-11
4.224103619446998e-11
3.798865098068353e-11
3.4408242555248916e-11
3.12930088870949e-11
2.844664918447877e-11
2.5773084466133192e-11
2.326307220680744e-11
2.094150511328981e-11
1.882600912397051e-11
1.691315327720447e-11
1.5184355660659268e-11
1.3617183311730532e-11
1.2192825765977263e-11
1.089791222917426e-11
9.722866605034066e-12
8.659654993627714e-12
7.700397769193725e-12
6.837010922941042e-12
6.061428216854916e-12
5.365893217000009e-12
4.743148874559714e-12
4.186469526639261e-12
3.689643699374154e-12
3.2469431937946725e-12
2.8531032229350457e-12
2.503311818766571e-12
2.1931776755263563e-12
1.918697547610385e-12
1.6762020143978177e-12
1.4623180211897224e-12
1.2739355485957217e-12
1.1082007828915463e-12
9.625214263990991e-13
8.34580453567457e-13
7.223456644015571e-13
6.240593941389087e-13
5.38209740022678e-13
4.634757195955829e-13
3.98667103632845e-13
3.426635694721372e-13
2.943795489871656e-13
2.5275569271736685e-13
2.1678657542129375e-13
1.8556721694101754e-13
1.583463124195744e-13
1.3455979818872192e-13
1.138322947518265e-13
9.593713723206059e-14
8.07253958450003e-14
6.804167961428941e-14
5.765411833916602e-14
4.9220503430578156e-14
4.230381153634825e-14
3.643262242611225e-14
3.1187696399877565e-14
2.628480152074122e-14
2.1624693006799878e-14
1.7290036613653432e-14
1.3487288296570438e-14
1.0449547509549188e-14
8.331367097903328e-15
7.129820921341364e-15
6.659311598228436e-15
6.589604360648248e-15
6.5361555446870795e-15
6.1731137241200414e-15
5.331608265328248e-15
4.049510198023703e-15
2.5551195243462304e-15
1.1888190398018068e-15
2.8805261343001345e-16
2.8962169420876353e-31
5.699685701526751e-08
3.4361789452957324e-07
9.687028127146963e-07
1.1390385546408934e-06
7.08313013900602e-07
3.592024136428704e-07
7.101683470097132e-07
1.3905848668640511e-06
1.6418696431046928e-06
1.2684174694129046e-06
9.674794365212558e-07
1.3240041181381638e-06
2.025637869900181e-06
2.3730892867513742e-06
2.1492612401394995e-06
1.987271385070677e-06
2.316648404820162e-06
3.003412107030097e-06
3.3485766082991096e-06
3.256444691965947e-06
3.225967319376673e-06
3.58820918099437e-06
4.323429995865456e-06
4.722042599378532e-06
4.819806624097869e-06
4.885726958927502e-06
5.388021879341045e-06
5.940632260818207e-06
6.348368494757473e-06
6.5198505346619905e-06
6.880638611021706e-06
7.68674041091102e-06
8.493184276275467e-06
9.066995823560959e-06
9.246981710341107e-06
9.626671568313915e-06
1.0204814244059041e-05
1.1074506293867724e-05
1.145950907518618e-05
1.2091906936685205e-05
1.2741243327191296e-05
1.3748316693776922e-05
1.4209442341209028e-05
1.4509733399017304e-05
1.4418717855236849e-05
1.4945077546705832e-05
1.5383581677285547e-05
1.601409830966103e-05
1.614902214132531e-05
1.664787730807411e-05
1.664932207784841e-05
1.6779901661718067e-05
1.6540510414355022e-05
1.6812231552113415e-05
1.7111707358845586e-05
1.7995982744529908e-05
1.8052143148269232e-05
1.7794489294583416e-05
1.706390205768353e-05
1.6375874120506553e-05
1.519906819017511e-05
1.434365415555496e-05
1.4133775502228328e-05
1.4260766128649523e-05
1.4293646225850413e-05
1.3777339529202378e-05
1.3366053932009538e-05
1.2409107388600006e-05
1.178974476069937e-05
1.119768539707732e-05
1.1253803020478047e-05
1.08652311458918e-05
1.0591980672321599e-05
9.91416589738887e-06
9.254133234122365e-06
8.75819275329742e-06
8.44439908918726e-06
8.531841155759473e-06
8.209409391111244e-06
7.963522917972346e-06
7.143758674722871e-06
6.556786184228115e-06
6.0168648688713445e-06
5.872216404956496e-06
5.742801333171837e-06
5.237808785306846e-06
4.7061033208712665e-06
3.75866391661018e-06
3.154490538527371e-06
2.6361655076131745e-06
2.453231620784774e-06
2.3460753073651324e-06
1.9864584610311547e-06
1.643527351064248e-06
1.156726211341079e-06
1.0361380446849128e-06
1.0749080307333111e-06
1.250621498635143e-06
1.3660922023811202e-06
1.1070736280699243e-06
8.408826200538875e-07
5.432627409347191e-07
5.034054117677228e-07
6.368733011056835e-07
6.890933867566569e-07
7.021464281953743e-07
4.300656882388539e-07
1.3820977715518412e-07
8.248693891996253e-08
1.6300536350927177e-07
3.6484925057465946e-07
3.926721853075597e-07
2.2141666210105084e-07
6.990099422449889e-08
9.986320708731631e-09
1.49265607992394e-07
3.4914017109610764e-07
3.939932884891006e-07
3.093361599607477e-07
1.3612628096288124e-07
3.917899760420961e-26
3.560697379962991e-27
3.317259251759551e-28
2.561074479048134e-29
9.8532750729667e-13
2.104129959098953e-11
7.224821680960279e-11
1.778897937181942e-10
3.0075804914564346e-10
4.4835757520325916e-10
5.482977579098219e-10
7.222845322445702e-10
7.446344641753395e-10
8.236541638000896e-10
7.728672326639785e-10
8.905269430137601e-10
8.943072743039726e-10
1.0834173436178021e-09
1.345630892533048e-09
1.783610572551745e-09
2.376281057276542e-09
2.8024893182234156e-09
3.716359945642317e-09
4.104393534839281e-09
4.797065922491495e-09
4.944970217407907e-09
4.9794841459920576e-09
5.095427157442271e-09
4.5213455721993726e-09
4.321770811830052e-09
3.607495223583404e-09
3.441712706059263e-09
3.3738881693943807e-09
3.3138711256443346e-09
4.158583729714731e-09
4.651074702626682e-09
6.263473361519768e-09
7.895033435310834e-09
9.00096616195058e-09
1.1281525361014614e-08
1.255348539785895e-08
1.3884932761990842e-08
1.5638360157877693e-08
1.5426970490155567e-08
1.5751873263486665e-08
1.59333714570078e-08
1.4212502662251254e-08
1.3762103718831828e-08
1.2887083172468306e-08
1.0006281798303774e-08
8.792274864142945e-09
7.913341495410828e-09
5.613986555054359e-09
4.776557590745383e-09
4.8407853283873335e-09
4.243051702729601e-09
4.140953782039309e-09
4.6704447820573525e-09
6.2468042835722105e-09
8.291481646022418e-09
8.325249440282715e-09
8.558038268676826e-09
1.1826849460178141e-08
1.4353558704640057e-08
1.4305326678831869e-08
1.511013688399058e-08
1.661330721411526e-08
1.7152932927512197e-08
1.9020924228811866e-08
2.2405718565775904e-08
2.3669187528371356e-08
2.235004732965706e-08
2.0712962897403332e-08
1.8975279046690275e-08
1.8115190303857335e-08
2.2307701030259998e-08
3.267926343621686e-08
4.382049517526291e-08
5.073922809816788e-08
5.326076030390067e-08
5.1129496416609e-08
4.3280855278901816e-08
3.363433924297435e-08
2.800580196742186e-08
2.5261086988724014e-08
2.0624151831934395e-08
1.491312757008025e-08
1.2080134149344223e-08
1.2155609298918689e-08
1.341370568364118e-08
1.6364559480344513e-08
2.076846408766314e-08
2.3496775502922738e-08
2.2734582307728113e-08
2.0873826309336756e-08
2.101550296943315e-08
2.2765957929681158e-08
2.34615118848879e-08
2.232961735496225e-08
2.069759277212977e-08
1.8373207376340337e-08
1.3725923233384216e-08
8.114325966552483e-09
5.719439529464673e-09
7.650993965809523e-09
1.0587560342823859e-08
1.2014992242191111e-08
1.2232154514917871e-08
1.107844343267846e-08
7.626834365194466e-09
3.2371734813964448e-09
6.098511790191246e-10
8.996000844995067e-11
2.2639493368565007e-10
7.046296844821745e-10
1.7621925045921346e-09
2.5891592939219984e-09
2.989253710937702e-09
4.455228851560158e-09
7.353900415791969e-09
9.558977816718633e-09
9.85448583487838e-09
9.891263374029666e-09
1.0818008519162048e-08
1.090710143064056e-08
8.686088950380219e-09
5.732019158493988e-09
4.0913877396663225e-09
3.236975821250401e-09
1.8029218129261367e-09
3.306776688668304e-10
6.813859789972068e-11
7.043954320601053e-10
1.486219611285294e-09
3.2057394326813786e-09
6.828362467757701e-09
1.1154714237042984e-08
1.4139056163599083e-08
1.5936583259138714e-08
1.8325187846088757e-08
2.1229520052655077e-08
2.217347576705091e-08
1.9781369477741953e-08
1.584159802427135e-08
1.2786833896358705e-08
1.0616269448708635e-08
7.766538320808748e-09
4.073989420191364e-09
1.1530871556589156e-09
6.36325123315991e-11
2.227597041733015e-10
9.980429646025088e-10
2.991174471581125e-09
6.77825933391833e-09
1.1196740809670972e-08
1.4142534814808449e-08
1.498928805734495e-08
1.5161213894645107e-08
1.5952374269702182e-08
1.6579869634441592e-08
1.512720049971137e-08
1.1096284552848356e-08
6.235736998210918e-09
2.713746971498783e-09
1.0794531561925528e-09
4.285302920353095e-10
1.7330118877776e-10
9.218010084281196e-10
3.4058785489176e-09
7.001279400358165e-09
9.828492934619148e-09
1.0392507544689716e-08
8.883072238395617e-09
6.7443466432599516e-09
5.135128374147167e-09
4.0179541328263245e-09
2.7213749714774423e-09
1.1347632263538142e-09
1.1404586176664794e-10
6.650022328759977e-10
2.8064602228462346e-09
5.303182560438118e-09
6.544956568919561e-09
5.7624480627332365e-09
3.538467059965266e-09
1.2744249659168463e-09
1.507166790448861e-10
4.1702698540806393e-10
1.4440001931835353e-09
2.330079694879226e-09
2.5223402072774083e-09
2.044465045059361e-09
1.30203632894594e-09
7.19540007383049e-10
4.890201793195378e-10
5.448835411472094e-10
6.980810394392577e-10
7.897110542350547e-10
7.659700430237359e-10
6.625212487590972e-10
5.451279146899721e-10
4.5947263259266393e-10
4.148192421051954e-10
3.955656712743099e-10
3.813064139276781e-10
3.6009072894271376e-10
3.306698520006231e-10
2.9780681777655354e-10
2.6666312424677466e-10
2.398182731548513e-10
2.1721553934855195e-10
1.9754940381901094e-10
1.7958064075327192e-10
1.6270271386275408e-10
1.4685727607831992e-10
1.3220147238411596e-10
1.188465734359396e-10
1.0677091994145642e-10
9.585720628405629e-11
8.596381558041624e-11
7.697199938901418e-11
6.879734932210754e-11
6.137941251243367e-11
5.4667471812688664e-11
4.861178399181685e-11
4.316131557065035e-11
3.826514525502324e-11
3.3874307510645876e-11
2.994298936784253e-11
2.642873243918416e-11
2.3292324357359058e-11
2.049760361755615e-11
1.80113341851686e-11
1.580313862290057e-11
1.3845295089155551e-11
1.2112531524437187e-11
1.058168327051068e-11
9.231456595372596e-12
8.042218280668917e-12
6.995952506895865e-12
6.076294377258856e-12
5.268616758334251e-12
4.56009058983853e-12
3.939619922922651e-12
3.3976602778811743e-12
2.925872434352364e-12
2.5167426030866345e-12
2.163198307454264e-12
1.8583864724784107e-12
1.5956195388027571e-12
1.3685503648740825e-12
1.1714659081622852e-12
9.99623261805483e-13
8.494615524539996e-13
7.186110496663362e-13
6.056408424219016e-13
5.096107529886669e-13
4.2953981482395186e-13
3.6396425625628956e-13
3.1072375122074683e-13
2.670594182371457e-13
2.299952320279983e-13
1.9688457739916927e-13
1.6593312866327932e-13
1.3651436417238172e-13
1.0915014396217742e-13
8.514380230216224e-14
6.596687100744672e-14
5.2595025589465454e-14
4.5009793638864616e-14
4.203951882100978e-14
4.159946451765018e-14
4.126204788360082e-14
3.897020386587954e-14
3.3657870293401696e-14
2.556412290888701e-14
1.6130195103388548e-14
7.504886903297667e-15
1.8184452079031113e-15
6.94926662639404e-16
2.231811290023704e-07
1.384181634382088e-06
3.890083813667531e-06
4.563397553333548e-06
2.829296042673445e-06
1.4286102683084985e-06
2.83645689777476e-06
5.543589133317047e-06
6.487058960762712e-06
5.041353335581379e-06
3.8698896012668915e-06
5.304625364538809e-06
8.065038692828462e-06
9.37676900595266e-06
8.532121815338687e-06
7.902226764676625e-06
9.27237442001214e-06
1.200414816059507e-05
1.327553752476822e-05
1.2860163668860488e-05
1.2827760283914422e-05
1.438067904582464e-05
1.727654697939484e-05
1.8746480133827546e-05
1.9186996879620297e-05
1.9551858226811313e-05
2.1540099735433593e-05
2.3734624235327637e-05
2.540133730330444e-05
2.61108949502324e-05
2.7474962023317648e-05
3.072747412583525e-05
3.3853986769557066e-05
3.616543028878753e-05
3.673577790092332e-05
3.8252617763255e-05
4.041107213953148e-05
4.370749479959709e-05
4.506460936447845e-05
4.745050844755954e-05
5.002250090680623e-05
5.397634641805277e-05
5.565551084272132e-05
5.6983526295832964e-05
5.661419183093513e-05
5.881818861122222e-05
6.063226557424452e-05
6.290926198078658e-05
6.34607510321937e-05
6.560061245490344e-05
6.55784562397565e-05
6.623322345742004e-05
6.515467226039776e-05
6.625049582521477e-05
6.741812902533805e-05
7.084123796403594e-05
7.104717699263067e-05
7.021740948585014e-05
6.714157820202211e-05
6.463884328942788e-05
5.9863947944717005e-05
5.639507084561445e-05
5.5443460165364924e-05
5.597775254056879e-05
5.598516559289781e-05
5.424927553027808e-05
5.2720321161006125e-05
4.9122117174569955e-05
4.6903857463714224e-05
4.4436521345617453e-05
4.4776389085947224e-05
4.324250218708723e-05
4.214664383821357e-05
3.9538851353474616e-05
3.710476880320201e-05
3.492100443610137e-05
3.371463366145485e-05
3.3956952272043776e-05
3.258871383051705e-05
3.1506265341004525e-05
2.8211492490888184e-05
2.5998013428833184e-05
2.3737152227516843e-05
2.3163615990413945e-05
2.247196020913475e-05
2.0517975240892383e-05
1.8453874109245128e-05
1.476410801344313e-05
1.2520577988449132e-05
1.0538813508730147e-05
9.918542684710679e-06
9.415302948975189e-06
8.021102199858243e-06
6.649885421185906e-06
4.659210387220446e-06
4.16390155628287e-06
4.242999703499983e-06
4.873712832760445e-06
5.273053843120613e-06
4.262987636403981e-06
3.28875422729139e-06
2.098481611144447e-06
1.960768979369498e-06
2.4781637370438017e-06
2.6676072276944846e-06
2.7462405556680484e-06
1.6687956116211285e-06
5.698193148116326e-07
3.5369603883225823e-07
6.771678842229029e-07
1.4851615290143768e-06
1.5911589244792787e-06
9.113193189173369e-07
2.91708782563276e-07
3.06777102059699e-08
5.575175620879208e-07
1.3162830039547172e-06
1.519321546784996e-06
1.2045931765731553e-06
5.20094135139529e-07
1.1173202124033023e-25
1.015290537570413e-26
9.407429294141877e-28
7.746616521183762e-29
3.3226121244401544e-12
6.897875028172195e-11
2.46570081199749e-10
6.215732100152234e-10
1.0467513521389341e-09
1.5605795063020315e-09
1.897805469375754e-09
2.514248817883813e-09
2.549234151351185e-09
2.789160846792347e-09
2.576887760300395e-09
2.9422158172277296e-09
2.911464380941139e-09
3.5297966822153485e-09
4.433394636420925e-09
6.007412838191391e-09
7.981391809670115e-09
9.633514751414575e-09
1.2717251597787558e-08
1.4207154367591135e-08
1.6616875312452705e-08
1.6879932300047427e-08
1.7268565274911813e-08
1.7278529119680323e-08
1.5308329130427807e-08
1.4462276222224624e-08
1.1665939407474927e-08
1.1268698476921977e-08
1.0691370436543443e-08
1.0715978747648197e-08
1.3587013234166069e-08
1.542157157995671e-08
2.1676208553407658e-08
2.7104432207825557e-08
3.162477913828877e-08
4.010428506523339e-08
4.4491358039449414e-08
5.0150171546292954e-08
5.6436621992764264e-08
5.596807644044605e-08
5.78825751169604e-08
5.794775519825138e-08
5.264000722942799e-08
5.198679287369932e-08
4.751684525338498e-08
3.763788275700598e-08
3.429946225346306e-08
2.9717708351677056e-08
2.1579008977264455e-08
1.9540726147362145e-08
1.8612872971810742e-08
1.6616859388966834e-08
1.7268850698977278e-08
1.8320557163158974e-08
2.4261645543574578e-08
3.264317813377943e-08
3.212572373643938e-08
3.3459294041451393e-08
4.555468485657592e-08
5.1586310838581804e-08
5.033992126363956e-08
5.6112850977464275e-08
6.099666465351718e-08
5.827027375424878e-08
6.173426381872786e-08
7.152694931808858e-08
7.318925238950027e-08
6.855897687106492e-08
6.594273044226664e-08
6.0843548071488e-08
5.351228195482782e-08
5.96407502105512e-08
8.441410288729485e-08
1.1002040259237804e-07
1.2392980030533686e-07
1.3265855375112644e-07
1.3627645174613985e-07
1.2545338671764417e-07
1.1047196659884779e-07
1.100241672896138e-07
1.1381515200835161e-07
1.0041156928399248e-07
7.730761334603982e-08
6.38249746160662e-08
5.885492805847785e-08
5.5549248797049893e-08
5.875321038390674e-08
6.806778470408e-08
7.063898412162352e-08
6.157795144074596e-08
5.179493783908636e-08
5.160008767149823e-08
5.868683590916717e-08
6.43726722791652e-08
6.59300185804201e-08
6.717532195396273e-08
6.646994745498999e-08
5.559846326275805e-08
3.707099731385096e-08
2.7445082426134264e-08
3.424024130595909e-08
4.616910896216903e-08
5.327442234688682e-08
5.7078975842660517e-08
5.6085357944130075e-08
4.343955069862815e-08
2.3313690905354795e-08
9.33245152642419e-09
5.118031362705255e-09
3.7000650692261674e-09
3.1470933942455783e-09
6.249974824510384e-09
1.0352182322870853e-08
1.2724234261543894e-08
1.8821093701722424e-08
3.205846170718018e-08
4.449530733606651e-08
4.946932326262862e-08
5.2776946031907016e-08
5.982350539598958e-08
6.320098472266896e-08
5.5245194041732054e-08
4.2340313211813424e-08
3.4390866794030586e-08
2.925905480135644e-08
1.977499726364902e-08
8.38420202849022e-09
2.7615708172576257e-09
2.9187134138815564e-09
4.256789581343489e-09
8.763471835444643e-09
2.1646663900309077e-08
3.975221499737871e-08
5.4643376730006534e-08
6.609639628065107e-08
8.137797168187431e-08
1.0001619160152438e-07
1.1016992557184718e-07
1.0442140260533105e-07
9.043229957928625e-08
7.962117119937378e-08
7.16362535894576e-08
5.786464823545133e-08
3.6809338875025756e-08
1.73462613439391e-08
6.719470653257464e-09
3.0375526067047118e-09
2.3778215273739794e-09
6.980571586141516e-09
2.0943733154634543e-08
4.0992052171769895e-08
5.788239064971016e-08
6.72559707034575e-08
7.392596593353391e-08
8.30130687864089e-08
9.050398610732566e-08
8.679481322315168e-08
6.879100510951514e-08
4.4671755024239664e-08
2.548906888386876e-08
1.4695312249694524e-08
8.172248495471434e-09
2.9835403425597647e-09
2.5081858118064e-09
1.1544441205752772e-08
2.829993325406088e-08
4.3804979311889586e-08
4.976222341111597e-08
4.578341280659908e-08
3.8179415899132816e-08
3.243835027043256e-08
2.8139658207515243e-08
2.1417209685139344e-08
1.1347111379882497e-08
2.720599587929256e-09
2.0993642515613698e-09
1.128930051542156e-08
2.480662505817702e-08
3.374461691755727e-08
3.245274411829704e-08
2.2330214395745894e-08
1.0075894791959728e-08
2.4813767766189175e-09
2.1033149799582945e-09
6.640665645512411e-09
1.1582180432860313e-08
1.3542575051559595e-08
1.1940128448012396e-08
8.445528225076126e-09
5.252971655718111e-09
3.632363689131511e-09
3.5445164027793837e-09
4.1619504180804065e-09
4.641675203587496e-09
4.59602915800925e-09
4.109787980258999e-09
3.48380627511339e-09
2.970357373486333e-09
2.655068642034707e-09
2.4863061153196487e-09
2.3673261582028333e-09
2.2297398306061543e-09
2.0560086218484714e-09
1.863175860389295e-09
1.6759844567785172e-09
1.509521014671804e-09
1.3660357314162616e-09
1.2403204556482846e-09
1.1262047440330116e-09
1.0200388471887568e-09
9.209059639314447e-10
8.292436946043873e-10
7.455116664251912e-10
6.696087198626254e-10
6.009385238289348e-10
5.387238265413567e-10
4.822576102874425e-10
4.3099286750821435e-10
3.8451412419814525e-10
3.4247337856344207e-10
3.0454324975698635e-10
2.703995675939286e-10
2.397240127073079e-10
2.1221163952609344e-10
1.87576574075857e-10
1.655535055381369e-10
1.4589722352180715e-10
1.2838171723849453e-10
1.1279931748924768e-10
9.896014720039455e-11
8.669085964217318e-11
7.583324313197839e-11
6.624222994327015e-11
5.778430994101167e-11
5.0336313634062466e-11
4.3785040791493783e-11
3.802753880778158e-11
3.2971661235049174e-11
2.853654855775953e-11
2.4652340590739323e-11
2.1259108121176604e-11
1.8304756636101235e-11
1.574256754131997e-11
1.352872147023867e-11
1.1620706915634136e-11
9.976869793038737e-12
8.557374900530957e-12
7.326077783849445e-12
6.252702269388274e-12
5.314370950188178e-12
4.495838922547612e-12
3.788081496697569e-12
3.185519815270837e-12
2.682623718112036e-12
2.270945048830393e-12
1.9375495716604793e-12
1.6654153300421092e-12
1.4357226746268967e-12
1.2313120289177745e-12
1.0401425211137773e-12
8.575267954834763e-13
6.862739984752868e-13
5.345572949564699e-13
4.120916917353672e-13
3.258236257505724e-13
2.7654476242167853e-13
2.5759410938880965e-13
2.561334272224134e-13
2.5663569942999844e-13
2.454534363646237e-13
2.1495247961139906e-13
1.6579800084299932e-13
1.0658842528544567e-13
5.090587846537566e-14
1.2732748349736057e-14
1.5121287753853564e-15
4.560144083395629e-07
2.821435630675166e-06
7.969688065169742e-06
9.366930750019776e-06
5.8116434101298486e-06
2.909587304416938e-06
5.7135508653428245e-06
1.1228698327945053e-05
1.318389708665719e-05
1.0242778259567595e-05
7.851734962884052e-06
1.0739276309554254e-05
1.6323242660635712e-05
1.901797539876174e-05
1.7282708151679147e-05
1.6006231162851833e-05
1.8821655383641456e-05
2.4330074403506393e-05
2.6904091636100457e-05
2.6019686885277277e-05
2.5946157614685838e-05
2.914523565856447e-05
3.511130848975826e-05
3.811461882427227e-05
3.900908214497847e-05
3.977961584896645e-05
4.38214058339855e-05
4.83652660295703e-05
5.174618194030789e-05
5.313456659945655e-05
5.578483218053339e-05
6.230510550973298e-05
6.852229058441637e-05
7.30964907785749e-05
7.404261067030808e-05
7.701432576007486e-05
8.116918484909346e-05
8.758858031810637e-05
9.01421185501357e-05
9.480181627263518e-05
9.98059932308171e-05
0.00010763371218840977
0.00011094495157436385
0.00011358588731806
0.00011286479987068459
0.00011731492793537106
0.0001208726200545535
0.000125363470319064
0.00012653528139085614
0.00013090853456208806
0.00013096754784878233
0.0001325216845020038
0.0001304533572611948
0.00013253315733967807
0.0001346629183400064
0.0001415570217599942
0.00014193066212318667
0.0001402911659550162
0.00013413461470537357
0.00012927794179733228
0.00011962253084340161
0.00011276809645024409
0.0001108242706201099
0.00011202588543644014
0.00011209849587862478
0.00010898312643183471
0.00010622667395291702
9.929781458654415e-05
9.509919120525328e-05
9.034031305157746e-05
9.119887938062545e-05
8.823737651660236e-05
8.621562082816562e-05
8.089581543550649e-05
7.602457225742218e-05
7.141902818074133e-05
6.880999061182264e-05
6.89301985434881e-05
6.588907413181786e-05
6.347125775040379e-05
5.654004426933608e-05
5.195558601655373e-05
4.723565604299152e-05
4.598176868104204e-05
4.444698660837315e-05
4.0621263742211016e-05
3.65612559543928e-05
2.9300591164597337e-05
2.506829477296092e-05
2.132402040952874e-05
2.0373252480760497e-05
1.943500503742065e-05
1.6704274877175178e-05
1.394221741039671e-05
9.805903737094686e-06
8.656064186592251e-06
8.608366796304206e-06
9.731141740820878e-06
1.0389670012794446e-05
8.341915060042894e-06
6.416172205397712e-06
4.045053661285766e-06
3.837151582715622e-06
4.898546468968361e-06
5.309565277145607e-06
5.495566261199376e-06
3.3326910820839985e-06
1.1792564133169708e-06
7.667916048790745e-07
1.4409258550574285e-06
3.1049552709485758e-06
3.314117230898089e-06
1.926976597653471e-06
6.299254298492985e-07
5.1416352700744754e-08
1.064689861188332e-06
2.559414795393627e-06
2.9987149064935376e-06
2.392023313167534e-06
1.0252958073041931e-06
2.192008149998353e-25
1.9929216159456142e-26
1.8233032510924724e-27
1.5567606431583985e-28
8.868303909606526e-12
8.569140552070953e-11
3.275497350113765e-10
8.706539032156283e-10
1.432502280468089e-09
2.165586458218355e-09
2.523467985158477e-09
3.410447588198912e-09