# vtk DataFile Version 4.1 
COMMENT
ASCII
DATASET STRUCTURED_POINTS 
DIMENSIONS 400 400 1 
ORIGIN 0 0 0
SPACING 0.002506265664160401 0.002506265664160401 0 
POINT_DATA 160000
SCALARS U double 1
LOOKUP_TABLE default
1.2638887232278857e-06
1.2610830505347157e-09
4.463063213819654e-09
8.165277019461266e-09
9.86654536817324e-09
9.91431291306243e-09
7.991072466108275e-09
5.4996633708957865e-09
3.770494111037119e-09
2.24388403839998e-09
2.1087733847831087e-09
1.8398453083137334e-09
1.6550918856592997e-09
9.50898032955202e-10
2.171349546895991e-10
1.37140086390168e-11
4.112776196559507e-10
1.2689732414933925e-09
3.244359013357907e-09
6.509113282487498e-09
1.0451860653591053e-08
1.4374406881736407e-08
1.556384087098069e-08
1.3619632880128939e-08
9.580518389203607e-09
5.627448610032145e-09
2.7486768961016648e-09
2.003232431508637e-09
2.350604029875807e-09
2.8450758317491455e-09
3.147317231183212e-09
3.207493756742239e-09
3.976539048172775e-09
5.5560996749492436e-09
7.319003366599408e-09
8.413843734142515e-09
9.225012690705804e-09
9.378920724733884e-09
1.0113241533324836e-08
1.0008214190446097e-08
8.87150075697529e-09
6.064610265548822e-09
4.414492525261901e-09
4.849304875310672e-09
6.9465440038548555e-09
8.923505439118751e-09
8.55929680324227e-09
5.445621094943904e-09
2.312491625560285e-09
8.304322037318602e-10
2.0804110443394126e-09
4.858705787582218e-09
7.266573887480033e-09
7.235902933746875e-09
5.635919321691247e-09
3.033850534950222e-09
1.725867868312009e-09
2.5443523090839826e-09
4.193488206578474e-09
5.208705404351714e-09
5.410790020638127e-09
6.100074614158356e-09
8.757709401378754e-09
1.2188181118381041e-08
1.4862935158032846e-08
1.4477526212619034e-08
1.240842931283479e-08
9.386481157258049e-09
7.412989025128919e-09
5.66586826427716e-09
3.803981832615018e-09
2.1758943869876476e-09
5.308248731189279e-10
3.5492233191784347e-10
8.91688060573547e-10
1.4765645908678604e-09
1.6536242060320382e-09
1.6891622549879844e-09
2.2883842297901744e-09
2.8814042247885334e-09
3.720970895241011e-09
4.144562498196319e-09
4.990802951415531e-09
7.125867383528975e-09
9.52757882634374e-09
1.1940372231827454e-08
1.2400920923833e-08
1.061338933458552e-08
7.354212493555886e-09
4.720331257009898e-09
2.6481846331884735e-09
2.1005295936035826e-09
1.998805245287317e-09
2.455173575241449e-09
2.3649919878093434e-09
1.8605254206414455e-09
1.4941564448486447e-09
1.2532601578961465e-09
9.370527023756427e-10
5.231627115797344e-10
1.0758493481316092e-10
5.624385039354369e-10
2.412295193710673e-09
6.397706447950082e-09
1.0247179320840078e-08
1.1603649734130741e-08
9.835853604514329e-09
5.283292372450092e-09
1.6120628693885877e-09
1.0435468494914407e-09
3.24187121745953e-09
5.99514627124818e-09
6.5149866125048655e-09
4.608777455607159e-09
2.436830469589529e-09
1.5061140791482265e-09
2.4526047473189925e-09
3.2066138083742424e-09
2.603263775945008e-09
1.1258644592282557e-09
3.4420890003199976e-28
3.957279856124446e-29
3.216642042604868e-30
6.117783568957821e-29
2.029172568676781e-10
5.548709366847326e-10
7.45386920608985e-10
6.455949068192069e-10
3.967028352395916e-10
1.5903200578968494e-10
4.43741975471649e-11
1.5642744727159766e-11
1.6169159660855423e-11
3.335394658634956e-11
6.470350415700114e-11
6.098544265614896e-11
3.445997569149049e-11
1.0979990529541773e-10
4.1615372208624875e-10
9.571772597050495e-10
1.369466515559998e-09
1.4087032791289203e-09
9.524076730593808e-10
3.399213298599374e-10
8.702019668471382e-11
3.941222858809215e-10
8.815530022261044e-10
9.314241525518027e-10
5.151777558191886e-10
7.274877328009211e-11
1.0788209749611038e-10
6.445297165711931e-10
1.0331094233224446e-09
1.0382078519468575e-09
8.263401724104018e-10
8.408674580455117e-10
8.634507060068446e-10
6.161250814799012e-10
1.866525253852763e-10
2.929301054667536e-11
5.277514235603751e-10
1.2030508954074996e-09
1.4200155957692874e-09
8.100147601863939e-10
2.746712931924059e-10
9.100115854494006e-10
2.4873175938553365e-09
3.4992323643966832e-09
2.930991159448761e-09
1.3288713715205028e-09
3.3090035280577303e-10
1.1260416168753397e-09
2.8884443486263973e-09
3.9576102030983295e-09
3.508801931998212e-09
2.591979597577337e-09
2.2186432580624065e-09
2.278283806070955e-09
1.9509219909786826e-09
9.898897194096416e-10
1.4438503627167916e-10
2.592150503097712e-10
1.2939052422117294e-09
1.915098462933933e-09
1.7828325027371457e-09
1.5639438949280419e-09
1.899869263401511e-09
2.247163496147104e-09
1.7522053433880512e-09
6.56447391173781e-10
1.8842138489378665e-11
6.020985758848309e-10
1.945141210830952e-09
2.8516769519308758e-09
2.5115936251547286e-09
1.4789011151419149e-09
7.80707327553876e-10
8.471460506509548e-10
1.26196725520448e-09
1.3020683107964136e-09
1.0781301556788825e-09
1.3796471798074135e-09
2.461471401469629e-09
3.4994667707309563e-09
3.226662454005545e-09
1.531776736425242e-09
1.4758587109674284e-10
5.577626629111862e-10
2.549998691401548e-09
4.239104615145714e-09
4.017616167713181e-09
2.1919829236271294e-09
4.361311374485792e-10
9.297725157608204e-11
9.713873758485869e-10
1.8877360707947547e-09
1.7453258764864969e-09
1.082861072036835e-09
3.964681045837334e-10
5.077383178133127e-11
9.174343487446465e-11
2.2423721018708545e-10
3.9022742145409893e-10
5.480691117861112e-10
5.874503063717373e-10
4.671406898994456e-10
3.425512029378546e-10
2.2673512698588292e-10
1.3904747233600168e-10
1.0273644793689982e-10
8.336825051596382e-11
2.5396030155944733e-10
6.766055260281838e-10
1.036000878049919e-09
1.0737760197388804e-09
6.185635095400495e-10
1.0391559449108448e-10
6.938758542224103e-11
6.160279891408236e-10
1.3580010502570976e-09
1.6361033947690337e-09
1.3054607185009836e-09
6.67210842687149e-10
1.6093067050224762e-10
8.77893611135732e-11
3.527785378646542e-10
7.348325292589543e-10
7.686292063964235e-10
5.552425549565116e-10
2.4874030123219477e-10
5.9081838088102e-11
2.0362708752365165e-10
4.94435056198688e-10
6.17887526215044e-10
4.350195347247669e-10
1.6430604959274906e-10
4.9823418780830223e-11
1.3883679135708694e-10
2.2672024095235974e-10
1.95875381341425e-10
7.282412159039474e-11
7.050709726961636e-11
1.8812532630919435e-10
2.7612733313632473e-10
2.2440828184473404e-10
9.72923392877932e-11
1.2590114986078667e-11
4.7986165162042533e-11
1.636208532461967e-10
2.690366149512243e-10
2.868989503356928e-10
1.7605117703354546e-10
3.227367956715717e-11
7.618661692334845e-12
1.4723304511766485e-10
4.0555807021403503e-10
5.716295434086312e-10
5.353449667576404e-10
3.938912014696147e-10
1.97783616366046e-10
1.557028198877999e-10
2.5345706036219494e-10
2.854436746943777e-10
2.4871092779741233e-10
2.257588347713562e-10
1.0389638241425824e-10
8.898688524025845e-11
1.8758106097176207e-10
3.614850208847934e-10
4.2538117594557233e-10
3.711812884662526e-10
2.571659768696867e-10
1.1460717819023273e-10
3.521255959828101e-11
1.4130427142730651e-11
1.772431904905488e-11
1.2637761585990685e-11
1.3002286464254203e-11
1.6104732542432672e-11
2.5913118745232008e-11
5.0704004071361984e-11
9.340644595211937e-11
1.3426748593075663e-10
2.0405802970715788e-10
3.522010169779909e-10
4.321405138354778e-10
3.8625145973784984e-10
1.5411162126526956e-10
6.655565081064183e-13
1.153120774816048e-10
4.322446381955763e-10
5.850718670311005e-10
5.462143431681286e-10
2.820088524544242e-10
6.019315481328608e-11
1.2479708672186918e-11
2.625101974449323e-11
3.871141216970489e-11
7.964793764424003e-11
1.493203845736666e-10
1.4617858997585784e-10
6.506014456610368e-11
1.539021625147278e-11
2.733749365926764e-10
8.18908483263561e-10
1.3597707074127765e-09
1.3942961937290328e-09
9.222418345956529e-10
3.497680204133158e-10
1.34168237410266e-10
2.2881054634070494e-10
4.750988546731916e-10
5.666799976714824e-10
5.264918321185267e-10
4.319339137158607e-10
4.375249482468643e-10
3.7654532544892986e-10
3.1501192799486833e-10
2.3458157236430387e-10
2.1254379315996643e-10
1.9789650880106053e-10
1.6999360794901077e-10
1.1272368288707472e-10
4.014276318684306e-11
1.2159593427160325e-10
4.5643342902275225e-10
1.0370362846792531e-09
1.5028223485842534e-09
1.6127960301246947e-09
1.3093011443570692e-09
7.87527120622632e-10
3.091282145762905e-10
9.25875013220446e-11
1.0971641100860999e-10
3.0801436546717756e-10
4.792762403633472e-10
5.156286108097237e-10
4.252771042054739e-10
3.4440642300399984e-10
3.1745375865998403e-10
3.693579024597275e-10
4.1950427039821736e-10
5.039787238459282e-10
4.763747981519507e-10
3.0854409933412696e-10
1.4319560879699276e-10
8.110619424175946e-11
3.6814514275244326e-10
9.187262383586047e-10
1.5912990034080168e-09
1.7266090553274516e-09
1.576885018243668e-09
9.773699116388929e-10
3.4325698586467353e-10
4.9144843709707875e-11
4.348602974092762e-11
1.5106607222520637e-10
1.9519611753344155e-10
2.1494070154356033e-10
2.2872836521613053e-10
2.932854083436181e-10
4.854021245723207e-10
7.065824535871032e-10
8.846350556163992e-10
9.305926823198147e-10
7.464806273647736e-10
4.836722334758299e-10
2.863980401855399e-10
2.926648340265595e-10
5.612227208029264e-10
9.508486530653345e-10
1.2210304641138395e-09
1.2806583983844332e-09
1.0337099039248846e-09
6.325667077075278e-10
3.4206917782480497e-10
1.39253999793063e-10
2.911874836384216e-11
5.2906268778283505e-12
7.144843940831536e-31
1.2922335659690529e-09
7.961081840938962e-09
2.8174838676514442e-08
5.154651676454343e-08
6.228644111112182e-08
6.258799249113786e-08
5.0446782131111216e-08
3.47187841234968e-08
2.3802724321778188e-08
1.416539891143918e-08
1.3312459867836468e-08
1.1614745807536325e-08
1.0448417295292912e-08
6.002917142954527e-09
1.3707496457743283e-09
8.657506347124688e-11
2.5963514362034133e-09
8.010891768949673e-09
2.0481289964034177e-08
4.1091332987033366e-08
6.598147363732054e-08
9.074408664198403e-08
9.825285565505827e-08
8.597927944259914e-08
6.048078351598697e-08
3.552547861233095e-08
1.7352102000645388e-08
1.2646191166316366e-08
1.4839110754480073e-08
1.796065812686056e-08
1.9868675616742976e-08
2.0248563558838177e-08
2.5103463877949807e-08
3.5075060448976855e-08
4.62040820950687e-08
5.3115691734956117e-08
5.82365142274091e-08
5.920811911445919e-08
6.384380750327566e-08
6.318078116901525e-08
5.6004831361650246e-08
3.8285233186633526e-08
2.786821713678709e-08
3.061314079801742e-08
4.385278614515002e-08
5.633313133402763e-08
5.403392133658933e-08
3.437762104027153e-08
1.4598511239815131e-08
5.242429302699315e-09
1.3133411459107884e-08
3.0672487747404725e-08
4.5873100425011224e-08
4.567947798856203e-08
3.55789533051678e-08
1.9152372551255912e-08
1.089521847149791e-08
1.6062222829980063e-08
2.6473040611740854e-08
3.288199773345819e-08
3.4157736209499646e-08
3.850911581006294e-08
5.528647875647388e-08
7.694267822763615e-08
9.382811317581118e-08
9.139506790145889e-08
7.833308142163818e-08
5.9255847312893275e-08
4.6797403462056167e-08
3.576801776279804e-08
2.401412871107291e-08
1.3736187545065662e-08
3.351040406350694e-09
2.2405865580199327e-09
5.629130947247415e-09
9.321393659479677e-09
1.043915199145432e-08
1.0663499877254242e-08
1.4446323839773262e-08
1.8189995369965775e-08
2.3490089579909172e-08
2.6164177869995913e-08
3.150640295369267e-08
4.4984835379317526e-08
6.014658174206557e-08
7.537828734479257e-08
7.82856817683707e-08
6.700118685011066e-08
4.642635353161657e-08
2.9798944199166033e-08
1.6717705139079567e-08
1.3260417699612901e-08
1.2618242815239829e-08
1.5499247062213863e-08
1.49299403874565e-08
1.1745297135342148e-08
9.432449144061356e-09
7.911696759994354e-09
5.915513058178357e-09
3.3026700035717884e-09
6.791721374230616e-10
3.5506138619710364e-09
1.5228560445318353e-08
4.0388033607173914e-08
6.46893423691602e-08
7.325259438530646e-08
6.209268730384659e-08
3.335285725143119e-08
1.0176779737464358e-08
6.587799170033068e-09
2.046558477575008e-08
3.784671445197014e-08
4.112841068855926e-08
2.9094717033272013e-08
1.5383449006526717e-08
9.507936404985706e-09
1.5483030327465664e-08
2.024300853930917e-08
1.6434124592398905e-08
7.107461398295819e-09
2.1729538132896284e-27
2.498188266724199e-28
2.030631570484142e-29
3.8620910539534785e-28
1.280994846594323e-09
3.5028406227746795e-09
4.705547565338755e-09
4.075571301272979e-09
2.504342387708567e-09
1.0039519703984063e-09
2.801295427364464e-10
9.875096722379358e-11
1.0207416815625126e-10
2.1055988214229488e-10
4.0846627172651864e-10
3.849945488408785e-10
2.175421250808183e-10
6.93155008160269e-10
2.6271337470876515e-09
6.0425572269538765e-09
8.645295013818385e-09
8.892992487678901e-09
6.012447338776793e-09
2.145886843335442e-09
5.493491545444737e-10
2.4880516567925934e-09
5.565149412540029e-09
5.879980627721544e-09
3.2522618355458785e-09
4.5925519153172e-10
6.81048093521298e-10
4.068846869652863e-09
6.521908819746543e-09
6.5540946520134386e-09
5.216596748505519e-09
5.308305942296341e-09
5.450871560935143e-09
3.889531459357007e-09
1.1783173437943334e-09
1.8492362912235564e-10
3.3316380494168957e-09
7.594731079045889e-09
8.964405927536322e-09
5.113536174701689e-09
1.7339703705748034e-09
5.744805391598482e-09
1.5702168799028352e-08
2.2090278052355322e-08
1.8503032362179715e-08
8.389022229955266e-09
2.0889383841653782e-09
7.108579775492776e-09
1.82344389155513e-08
2.4983968112204466e-08
2.2150689704724988e-08
1.636288878643458e-08
1.4006056576363484e-08
1.4382560949753631e-08
1.2315960974087583e-08
6.249067471315854e-09
9.114872251105045e-10
1.6363967694627176e-09
8.168284811456164e-09
1.2089810889464292e-08
1.1254830089864678e-08
9.873009820312571e-09
1.1993670588634625e-08
1.4186101775939412e-08
1.1061484122657967e-08
4.144081869302296e-09
1.1894839638725302e-10
3.800983636168524e-09
1.2279467529947605e-08
1.800233028951974e-08
1.585542077705289e-08
9.33614388624801e-09
4.928521500500534e-09
5.347942023010178e-09
7.966663730043845e-09
8.219817386609178e-09
6.806119867287495e-09
8.709564453673617e-09
1.553900456272209e-08
2.2091757834365244e-08
2.036957348568848e-08
9.66994200386491e-09
9.31693751548914e-10
3.5210957798324384e-09
1.6097867835054323e-08
2.6761012099217066e-08
2.5362779321379602e-08
1.3837752748747966e-08
2.753249024430019e-09
5.869554022067824e-10
6.132264163812619e-09
1.1917075046974378e-08
1.1018054787054669e-08
6.835985634091931e-09
2.5028605582913275e-09
3.205297462509337e-10
5.791664498977901e-10
1.4155854218532896e-09
2.4634637960262873e-09
3.4599014327961136e-09
3.7085106841512677e-09
2.949008998214109e-09
2.1624889495929983e-09
1.4313545022946224e-09
8.777917573099066e-10
6.485641605651797e-10
5.262948106487292e-10
1.6032241050318059e-09
4.271338009386436e-09
6.5401622628604026e-09
6.778632674790354e-09
3.904924993781129e-09
6.560079861057299e-10
4.38036373621372e-10
3.888918525849418e-09
8.572914762904592e-09
1.0328544991919056e-08
8.241233292058433e-09
4.2120303825683834e-09
1.0159380367869801e-09
5.542048069653767e-10
2.2270530164341322e-09
4.638918826427971e-09
4.852273618984335e-09
3.5051866090076777e-09
1.5702708036632997e-09
3.7297729767523857e-10
1.285475931280234e-09
3.1213154008833866e-09
3.900657583659966e-09
2.7462315958355034e-09
1.0372464424247226e-09
3.145298910657633e-10
8.76461750919956e-10
1.4312605283639488e-09
1.2365402427881452e-09
4.597308573212505e-10
4.451037316633951e-10
1.1876149778286272e-09
1.7431621943427134e-09
1.416665378852655e-09
6.141960874330222e-10
7.948004356136986e-11
3.0293150631582297e-10
1.0329208714881357e-09
1.6983992520775843e-09
1.8111622567074197e-09
1.1113921703756233e-09
2.0374027248517425e-10
4.809579291814814e-11
9.29466399041196e-10
2.5602445349322554e-09
3.608635906925472e-09
3.3795752719737297e-09
2.4865928457255523e-09
1.248586725528765e-09
9.829351773986354e-10
1.6000471974083468e-09
1.8019752578997506e-09
1.5700853723246157e-09
1.4251912744110796e-09
6.558867023283585e-10
5.617646481471274e-10
1.1841790892147508e-09
2.2820161085482354e-09
2.6853856721503308e-09
2.34322760428193e-09
1.6234611889331964e-09
7.235028055802108e-10
2.2229310644686906e-10
8.920386875630856e-11
1.1189172232915909e-10
7.978083142873605e-11
8.208203783039508e-11
1.0166744667797758e-10
1.635867352251615e-10
3.200889314183221e-10
5.896648602015235e-10
8.476162165676879e-10
1.2881964229957884e-09
2.2234071891100488e-09
2.7280566462065443e-09
2.438363976782758e-09
9.728901114104898e-10
4.201586746057761e-12
7.279527590910868e-10
2.728713972107505e-09
3.693495852069837e-09
3.4481924777376004e-09
1.7802915940445008e-09
3.799929207911338e-10
7.878306036087725e-11
1.6571986793843773e-10
2.4438098690698185e-10
5.028088751006033e-10
9.42643548818924e-10
9.2280973699347e-10
4.1071770432126136e-10
9.715678208169748e-11
1.7257866106066459e-09
5.16968129318374e-09
8.58408641844368e-09
8.802042105061934e-09
5.822013640767402e-09
2.2080479431334346e-09
8.469896713184413e-10
1.4444564017539807e-09
2.999248037618061e-09
3.577389956333872e-09
3.3236863839413743e-09
2.726752401843001e-09
2.7620480022857806e-09
2.3770901935846806e-09
1.9886364649622112e-09
1.4808882691560355e-09
1.3417661361895489e-09
1.2492994033448635e-09
1.0731513874084154e-09
7.116125020438122e-10
2.534169521320449e-10
7.676220720365788e-10
2.8814152104017233e-09
6.546698673694954e-09
9.487156063510978e-09
1.0181408102440199e-08
8.265477487975105e-09
4.971574121607143e-09
1.9514932141397787e-09
5.844949507174036e-10
6.926279176960479e-10
1.944461604356153e-09
3.0256194247732487e-09
3.255108034673306e-09
2.684728678433779e-09
2.1742007545952716e-09
2.0040514796660075e-09
2.331716764278638e-09
2.6482853986876725e-09
3.181563549623618e-09
3.007302931746172e-09
1.947805757357743e-09
9.039784972231343e-10
5.120146923645967e-10
2.324060742513069e-09
5.799820059344699e-09
1.00456996818443e-08
1.0899897505513057e-08
9.954705741755415e-09
6.170031269652935e-09
2.1669444813995347e-09
3.1024611952975286e-10
2.7452263477670156e-10
9.53663887453031e-10
1.2322521233303105e-09
1.3568975613553487e-09
1.443937601141888e-09
1.851479280120949e-09
3.0642914737830867e-09
4.460579133145308e-09
5.584606084539449e-09
5.874731645457963e-09
4.712452018609403e-09
3.053370857104244e-09
1.8080000647339143e-09
1.8475616611152917e-09
3.5429387536467715e-09
6.002605413013854e-09
7.708234165044283e-09
8.0846589092616e-09
6.5256995892901446e-09
3.993325679682754e-09
2.159445976830222e-09
8.790955429625399e-10
1.8382353068020504e-10
3.339915919606074e-11
1.2740714948464427e-11
4.15917371095557e-09
2.5037666098354748e-08
8.553057421648051e-08
1.5896331267478704e-07
1.8548925686561683e-07
1.8663870599838378e-07
1.4800708240289505e-07
9.761984476658163e-08
6.303172811122159e-08
3.4223832543607536e-08
3.203813844703136e-08
3.232872600892824e-08
3.06398297495566e-08
1.907011673146882e-08
5.097633739964303e-09
1.0101455058306728e-09
7.3602292693543915e-09
2.0554149408898205e-08
5.4286901798816775e-08
1.1566367590074501e-07
1.9248004324763327e-07
2.69864843861752e-07
3.005111427808258e-07
2.5640338055544527e-07
1.8848944108156398e-07
1.096665290118148e-07
5.73114577458973e-08
4.522695135384994e-08
5.303562452277258e-08
5.869556131689873e-08
5.973177414104287e-08
5.350988065737295e-08
6.270112142969594e-08
9.296516883634445e-08
1.2975622260331192e-07
1.5294997955621e-07
1.719044751628564e-07
1.807398798255386e-07
2.085260379862405e-07
2.1488822452424135e-07
1.9906847369051517e-07
1.3789511418008582e-07
1.0139694269579101e-07
1.1242852068825739e-07
1.5723349114048608e-07
2.039488020564645e-07
1.935926663902952e-07
1.273399752375409e-07
5.8169116603126535e-08
2.6433383664137387e-08
5.276313149243325e-08
1.1210972956495894e-07
1.6581850155725588e-07
1.6382239805109563e-07
1.3080333085016016e-07
7.567882736921293e-08
4.7073505058180714e-08
6.565505264016272e-08
1.0442661436388442e-07
1.2283346321395643e-07
1.2373670935704267e-07
1.3180419589401561e-07
1.8518259693895814e-07
2.53936573076263e-07
3.131296696896429e-07
2.9711953788995954e-07
2.5560311896587704e-07
1.8927708329808349e-07
1.5129759506879416e-07
1.20787640776604e-07
8.112194522938372e-08
4.5402743481589874e-08
7.7797480478016e-09
4.043695625608197e-09
1.8126295554011247e-08
3.344891046321754e-08
3.6481201886049385e-08
3.8460540694408815e-08
5.375682064798001e-08
6.691201483927323e-08
8.545100971612387e-08
8.80419289134762e-08
9.970994134266835e-08
1.415812619600879e-07
1.9491156996553822e-07
2.459219514174936e-07
2.598451951250335e-07
2.2833426213106187e-07
1.5513231497589166e-07
1.0620052464709525e-07
6.197569936043001e-08
5.126431677279312e-08
4.851342564265209e-08
5.891872523669414e-08
5.6341412567261955e-08
4.4887181503194936e-08
3.4177149305725015e-08
3.013954506855915e-08
2.479271347825062e-08
1.6383415407402683e-08
4.637690923621751e-09
4.240293530504497e-09
3.572652176501425e-08
1.1681671252723326e-07
2.009137286700027e-07
2.3862564899914117e-07
2.0294055433284188e-07
1.0997406670612346e-07
2.8397762581908618e-08
1.4666462509550883e-08
6.247307390311702e-08
1.2298914654599041e-07
1.341318899766199e-07
9.046514290864375e-08
4.414186976121127e-08
2.6357779839427266e-08
5.443326907875276e-08
7.386328181295379e-08
6.191008222710499e-08
2.6801197727722318e-08
5.937646073310633e-27
6.891584622070262e-28
6.588266033081975e-29
1.0719269456224168e-27
5.0920094701161606e-09
1.4632888716939511e-08
1.831483320379181e-08
1.4626223055163924e-08
8.504545350388105e-09
2.4155753728017342e-09
2.944148639306259e-10
7.410309252073401e-11
1.3193132041419732e-10
6.273189414121958e-10
2.132142223165175e-09
2.217634853279754e-09
9.934342273499404e-10
1.1727422907885958e-09
7.34215203153086e-09
2.022105991281549e-08
2.9711328919119335e-08
3.285513722488701e-08
2.2617006001383637e-08
6.683203760979473e-09
8.945622810575547e-10
8.887900624351983e-09
2.2262101514794415e-08
2.5135021975653196e-08
1.558357699677946e-08
3.0949563280192575e-09
1.967591902473846e-09
1.3256295327123158e-08
2.2748713883754643e-08
2.2362574224051196e-08
1.7965721237588044e-08
2.0865325017820944e-08
2.2410539074311233e-08
1.7241427122627523e-08
5.753505804887908e-09
7.41891496914824e-10
1.2690100546252655e-08
3.155988231020858e-08
3.748277749458736e-08
2.117269330558342e-08
4.451616125139081e-09
1.606915270898832e-08
5.4483176821047276e-08
8.082595437354005e-08
7.278758974852288e-08
3.5214682272916457e-08
9.494063207457671e-09
2.505904739812484e-08
6.428621630522799e-08
8.754989653530469e-08
7.471030435691008e-08
5.502928411639594e-08
4.8258119906849464e-08
5.4607185718563146e-08
4.86472293733477e-08
2.4012752321984667e-08
3.164432576759181e-09
5.995530633329279e-09
3.223719489293536e-08
4.4644450218636333e-08
3.762694774097298e-08
2.995239886477039e-08
3.7834158923163485e-08
5.1101617442495005e-08
4.6125151635021325e-08
1.8919570416415272e-08
4.3387997370856995e-10
1.0134684939426487e-08
4.031138219819043e-08
6.206754758693604e-08
5.6271845210738644e-08
3.483752491216532e-08
2.0669581955464882e-08
2.4176970452144128e-08
3.254522233869693e-08
3.264277237804344e-08
2.3974770519819852e-08
3.096461347764199e-08
5.760489992262254e-08
8.328762201283763e-08
7.788278499251841e-08
3.761399737228265e-08
4.289750783548832e-09
1.1847981710464527e-08
5.78715759301265e-08
9.495812056245485e-08
9.226756989577817e-08
5.057857551860723e-08
9.150932858785321e-09
1.854714789735113e-09
2.139265623355036e-08
4.1670204693375745e-08
3.666862009342123e-08
2.278373145366597e-08
8.383223196200251e-09
1.7645531706987967e-09
2.7453891081446783e-09
4.788784672096851e-09
7.811795782426937e-09
1.2055992698598764e-08
1.4003182352701892e-08
1.170413999463279e-08
9.22148484264364e-09
5.69016165186481e-09
3.694720663145194e-09
2.628411508038098e-09
2.1602416426264087e-09
5.617592344896737e-09
1.510976784870935e-08
2.3564171996033282e-08
2.4953247761518183e-08
1.569219177615293e-08
3.208915010174604e-09
1.061920787928097e-09
1.1739170464675591e-08
2.8781059619935166e-08
3.475408731493491e-08
2.849861231928616e-08
1.489468401217679e-08
2.877199522026478e-09
1.17898315763642e-09
7.500767618400167e-09
1.609298221428401e-08
1.684637178880633e-08
1.2828911718380485e-08
5.434358316097029e-09
8.447347931095549e-10
3.6263934570426416e-09
1.0004866215426629e-08
1.2631035441616165e-08
8.713674107219584e-09
3.221180928229665e-09
7.811277469336865e-10
3.111690449372505e-09
5.5424953973509425e-09
4.504761908081468e-09
1.4117298024287658e-09
1.6008361941029238e-09
4.703188916760973e-09
6.921127454007086e-09
5.55232764285872e-09
2.3764353604276364e-09
2.2184238973677816e-10
1.3323980064508758e-09
3.997427878354819e-09
6.621189870894184e-09
7.333536118142317e-09
4.9966271160475134e-09
1.1311065149002355e-09
7.259137681972783e-11
2.9388950324883605e-09
9.118690213246327e-09
1.288745884231181e-08
1.1359205830892735e-08
8.499489845888089e-09
4.012769522242859e-09
3.025283624760069e-09
5.2186292375311435e-09
6.380622265606162e-09
5.39642546835387e-09
5.367575550405713e-09
2.633581549187572e-09
1.5767655991137694e-09
3.1799591146752846e-09
7.191803346612181e-09
8.578396798453908e-09
8.126465703393754e-09
5.486298426826823e-09
2.072984183205682e-09
5.178436908718733e-10
3.692579065726069e-10
3.773743753227771e-10
2.065716971790582e-10
1.505432898226081e-10
1.1745389901881632e-10
2.425947505273812e-10
7.427268863573292e-10
1.3936365887841254e-09
2.2255270180954103e-09
3.730721253072922e-09
6.962827744153125e-09
9.03153102524325e-09
9.009783197727615e-09
3.5172638466872098e-09
3.809946574020095e-11
2.4797461346539764e-09
1.0563729229552388e-08
1.3557241439530577e-08
1.187494460940567e-08
5.440418389338511e-09
6.626000959976157e-10
1.375990177154608e-10
1.0783496555704549e-09
8.855069805930301e-10
1.4231774699121488e-09
3.41044937131503e-09
3.8942034054920255e-09
2.3251904909853427e-09
1.8887783054468765e-10
4.5925335462270724e-09
1.6042203181800247e-08
2.8407601568747555e-08
2.909308093302637e-08
1.9355678820322066e-08
7.213843821814214e-09
3.2094611454029774e-09
5.714656281978608e-09
1.1244942924311539e-08
1.2127368344821812e-08
1.0576755579502672e-08
8.620546632095815e-09
8.828406902928397e-09
7.140329178809788e-09
5.960426642002523e-09
3.763833064746314e-09
3.466243878937672e-09
3.3061637768014435e-09
2.8616751700793405e-09
2.2167666992891745e-09
7.848969202603175e-10
1.8606913824508843e-09
8.105246254527947e-09
1.9677271663537105e-08
2.9119395615325924e-08
3.204829836259631e-08
2.6552638754127412e-08
1.5491392097257457e-08
6.054157575768521e-09
2.2370479468809546e-09
2.7735990907998108e-09
6.7854207907000565e-09
1.0358698684442174e-08
9.911269886423357e-09
6.89935919946641e-09
5.115449060567802e-09
4.256549381704589e-09
5.3288003887886795e-09
6.583143908827541e-09
9.500304510376612e-09
1.0301916011602098e-08
7.536793284958614e-09
4.120291829747271e-09
1.4340640284979877e-09
6.591274718242126e-09
1.7742343272455765e-08
3.272079652907835e-08
3.5242913951858226e-08
3.161002310709851e-08
1.8066479189210943e-08
5.304848531134751e-09
3.7870524640126773e-10
1.5190912987049333e-09
3.6378785588458395e-09
3.804811327706357e-09
3.3145505491975013e-09
2.7903141035589873e-09
3.4933557318370393e-09
7.457724161048605e-09
1.2380798841644379e-08
1.704147161410874e-08
1.9229047657989283e-08
1.6213458109729126e-08
1.0801283595474556e-08
6.120720079710392e-09
5.891585138521882e-09
1.1643119813157063e-08
2.015121646899584e-08
2.4957592522951908e-08
2.5456628937774235e-08
1.8626661034269887e-08
1.018768904892269e-08
4.808597835560464e-09
1.5906918094130101e-09
1.4676108243131886e-10
3.9951451310579307e-11
1.916056831048394e-11
5.806592902111569e-09
3.538405411141942e-08
1.194942669345264e-07
2.1538700793128032e-07
2.45227567787268e-07
2.399102767129518e-07
1.8389630343212215e-07
1.1470052276524841e-07
6.326102852071241e-08
2.496322667262291e-08
2.895698726576057e-08
3.731204692408405e-08
4.399565132438996e-08
2.991216992133064e-08
9.838289328842863e-09
5.588781905720927e-09
1.4275437643277697e-08
2.4761898894573996e-08
5.905263881494886e-08
1.3130511414599832e-07
2.3322245166000994e-07
3.387904646003795e-07
3.859964298147407e-07
3.345886629938714e-07
2.47337303535883e-07
1.5724789397775834e-07
9.211712077678258e-08
8.069600546847792e-08
9.212309193628766e-08
8.895031744617172e-08
7.603925557962071e-08
4.862082368661084e-08
4.4487917804824016e-08
8.095736949005023e-08
1.3694913158218085e-07
1.7710866042217569e-07
2.135406461454846e-07
2.416039414153323e-07
3.0461469209602564e-07
3.392830913131465e-07
3.322823428724623e-07
2.345348918928065e-07
1.7884511356485085e-07
2.043177973751051e-07
2.8872124463503486e-07
3.643239907953821e-07
3.457539692892714e-07
2.328234721154124e-07
1.2333261124061718e-07
7.211876580821652e-08
1.1294442058806005e-07
2.0754898384282586e-07
2.9482944035273785e-07
2.93412446164962e-07
2.439376184497929e-07
1.5536722152387984e-07
1.0447854325708928e-07
1.3879750090875919e-07
2.0581608997507376e-07
2.351483798348619e-07
2.2312107574394074e-07
2.1727616523237018e-07
2.9119206585074483e-07
3.966455441261891e-07
4.946899513338711e-07
4.6181949964712663e-07
3.9014002754236945e-07
2.841861734219853e-07
2.409994471898016e-07
2.072133002903958e-07
1.4327276473099772e-07
8.105643652037406e-08
1.2457932239840085e-08
3.445456230782331e-09
3.016620145598944e-08
5.9512146698825466e-08
6.454222625550488e-08
6.892021326329534e-08
1.0106794348866067e-07
1.311538652496898e-07
1.623480369614354e-07
1.530803735951969e-07
1.4796162294312382e-07
1.975123349011198e-07
2.7951214938338745e-07
3.7216038957007287e-07
4.0725512927132913e-07
3.7182222913020616e-07
2.624167290366507e-07
1.8695038372932242e-07
1.1464932300381136e-07
1.0045386572843554e-07
9.429433891374774e-08
1.1101067715957106e-07
1.0560714472208298e-07
8.310962949434386e-08
6.217040046872331e-08
6.063059870723672e-08
5.7328120436049154e-08
5.010447246781523e-08
2.6552364115287e-08
4.499831386139705e-10
2.7840073705475054e-08
1.4225360767439766e-07
2.8430819727203284e-07
3.600621430652767e-07
3.2027268494131734e-07
1.7291267110634012e-07
3.676799287604699e-08
1.1373163777147774e-08
9.022192746063036e-08
1.897756697083464e-07
2.02896059901588e-07
1.251980734384855e-07
4.741524101895573e-08
2.9470184977284126e-08
9.373693089921559e-08
1.3633135684919502e-07
1.1836248080319393e-07
5.0208558759999294e-08
1.1428635248821042e-26
1.3506500863971156e-27
1.5711748022566646e-28
2.299662161502444e-27
1.0519620428564372e-08
2.9112963494647917e-08
3.830218079897195e-08
3.2045016975814254e-08
1.8826432804408666e-08
6.3903783503157335e-09
1.2460454941661086e-09