# vtk DataFile Version 4.1 
COMMENT
ASCII
DATASET STRUCTURED_POINTS 
DIMENSIONS 400 400 1 
ORIGIN 0 0 0
SPACING 0.002506265664160401 0.002506265664160401 0 
POINT_DATA 160000
SCALARS U double 1
LOOKUP_TABLE default
1.241996440404461e-06
9.365133041380606e-11
2.221051101195054e-10
5.068323036622924e-10
1.1603145292604821e-09
2.6039267938847083e-09
4.660713139323037e-09
6.372342769097549e-09
6.6740533002995464e-09
5.6919158290178435e-09
3.4621899447914426e-09
1.68211089840292e-09
7.320235611866121e-10
5.794398633839496e-10
1.0447970924876878e-09
1.36660401054481e-09
1.1878183037608573e-09
5.36797556600451e-10
7.118001366692136e-11
1.234702409589373e-10
8.40718244437597e-10
1.8198525321480968e-09
3.197221641259839e-09
3.7701245404068465e-09
3.773944250032762e-09
2.688107940985088e-09
9.694292990996942e-10
1.7458966477154887e-10
6.694941546135517e-10
1.9630678209386462e-09
2.9913405578022507e-09
2.938605591074664e-09
2.223602622699776e-09
1.943120544959632e-09
2.035339350755639e-09
2.4206667036251363e-09
2.382952644167475e-09
1.942903096683217e-09
1.716807885951321e-09
1.8318368330336662e-09
2.0855458602412194e-09
1.947138510946269e-09
1.482170705537234e-09
1.3480593645063448e-09
1.87711412310599e-09
2.448728104975808e-09
2.641179078034879e-09
1.990599945360847e-09
8.909784511496853e-10
9.104509730715053e-11
4.964854100920096e-10
2.101901291389046e-09
4.405867091769921e-09
5.6837411321271e-09
5.9166685358694915e-09
5.357933791281278e-09
4.804060372877786e-09
4.306801923660299e-09
4.508279258606255e-09
4.355793259495107e-09
3.836245289160421e-09
3.0351079109515446e-09
2.4763926085334735e-09
2.5082050154343908e-09
3.3514533622990403e-09
4.418605448264284e-09
4.831793779003467e-09
4.6776393891295255e-09
3.5849669928813392e-09
2.7394968957262743e-09
2.0885957751873993e-09
1.4637048461778525e-09
1.185620629649686e-09
1.0487544133005147e-09
1.4603449133147463e-09
2.568684026891605e-09
4.180909690464215e-09
5.2279777561153215e-09
6.10397903246933e-09
7.200092468346339e-09
9.542917024582046e-09
1.2600784645331409e-08
1.4995880967216128e-08
1.4117566772710521e-08
9.777901266522467e-09
4.514996584112737e-09
1.2382021545371458e-09
2.4237776430270004e-09
6.7185610045305645e-09
1.0270061154635733e-08
1.0231014605551602e-08
6.9926443574479765e-09
3.06766049129565e-09
6.12849498058316e-10
2.3276008444593522e-10
6.333860791508951e-10
5.558719170369289e-10
1.4024829803089232e-10
1.890863773975004e-10
7.825926127270954e-10
1.056091576724459e-09
8.211109958791811e-10
1.3136484397660723e-09
4.003736015531081e-09
8.78987553647656e-09
1.2578956757611862e-08
1.2184349308253597e-08
7.206820927696793e-09
2.101488828582633e-09
1.5990784803617756e-09
6.6985308279051715e-09
1.3537664284950341e-08
1.6291423480908123e-08
1.238533745493424e-08
5.5145487222168166e-09
9.356664968206243e-10
5.004172822423237e-10
2.171902411061242e-09
2.5505273229951535e-09
1.2710283174336094e-09
3.7593519979295945e-28
3.1283841585738024e-29
3.503818170298109e-30
1.0027754330859227e-28
3.1871497254430685e-10
6.671204975751957e-10
6.387394457447495e-10
3.106256611030046e-10
1.892115497576961e-10
4.1992359119052936e-10
6.404070340703399e-10
5.382219969055649e-10
3.0052359293554046e-10
2.2639406610200738e-10
2.092976436551377e-10
1.5197948154356e-10
9.828108568399624e-11
2.606057190702043e-10
4.63253643865756e-10
3.633192154964588e-10
7.095308269938101e-11
1.0205082775137278e-10
8.508259288998827e-10
1.6888918373143791e-09
1.9247990334053713e-09
1.3921633930263001e-09
5.546531224891489e-10
1.5166369077042247e-10
7.395546676396217e-11
1.438302894017764e-10
5.101796091520012e-10
1.1840969754630937e-09
1.5347208634434569e-09
9.690344835460652e-10
1.8887506661282258e-10
3.335346130588483e-10
1.7572053085343523e-09
3.5381916674222405e-09
4.172818781728423e-09
3.229583804558669e-09
1.6991839413120667e-09
6.960449922847289e-10
2.2744389525102416e-10
2.077540838849916e-10
7.403202577420601e-10
1.6451600921829196e-09
2.095984178199106e-09
1.356656065506862e-09
4.206255042629305e-10
8.869050856410093e-10
3.0204666501323044e-09
5.236748043547116e-09
4.818485895206054e-09
2.2421316595933046e-09
3.1110298200503894e-10
8.65913225420952e-10
3.452180609566523e-09
5.234779238178055e-09
4.979312443255734e-09
3.2596033932940555e-09
1.4995878684229047e-09
8.255910794163667e-10
9.330558137364448e-10
1.4032780141311242e-09
1.853108765989821e-09
1.6762128103730912e-09
9.263219651792304e-10
1.5066501810703967e-10
4.507974395595461e-10
2.0425748148188007e-09
3.450685056378199e-09
3.1260889392046494e-09
1.305021606278558e-09
1.9225968606917957e-10
1.223030479351356e-09
3.45705101903972e-09
4.564614069733494e-09
3.604444950317595e-09
1.6178036981214837e-09
7.123771148637019e-10
1.3128155164014681e-09
2.397947239873078e-09
2.6562836941179524e-09
1.8867174250694276e-09
7.547474738737941e-10
1.0775786080983927e-10
1.3853627372310036e-11
8.05621520378742e-11
5.456803989742688e-11
5.285259707036204e-12
9.556597083667981e-11
3.3483565114966314e-10
5.824280047845755e-10
6.288326159483753e-10
5.027550549673151e-10
2.9819623006530076e-10
2.7137298980845366e-10
6.078344792236743e-10
1.1504768230328412e-09
1.4966715263782149e-09
1.5822319479096116e-09
1.3191492998950214e-09
7.618970129296303e-10
3.6796988113982294e-10
2.27664282732021e-10
2.361000846734072e-10
3.001125298302668e-10
2.356691472862163e-10
1.6972542690796338e-10
1.1717934840750188e-10
5.746896800655287e-11
3.00878967041358e-11
2.351156929710576e-11
4.440021041847893e-11
1.2931671179816298e-10
3.2659055587142407e-10
5.902693195661871e-10
8.510004403951664e-10
1.0198802170535687e-09
1.0165962796030449e-09
7.302436605799298e-10
4.108715311054599e-10
1.6235497524611557e-10
1.16546639658615e-10
1.425573275834004e-10
1.539168715270087e-10
1.4841894179357913e-10
9.642271324546045e-11
3.8836489449097145e-11
4.242863556787184e-11
7.073873887317116e-11
1.4759991458821837e-10
2.2094425785892575e-10
2.8276261592100965e-10
2.999880532309803e-10
3.372370781930396e-10
3.5251334137836553e-10
2.895469569230722e-10
1.8325971478409918e-10
1.3202171718945766e-10
1.0638288975607877e-10
6.133992901483813e-11
1.6436481936817394e-11
1.6308387391875532e-11
8.351683935363431e-11
2.3427930684543844e-10
3.605208730572304e-10
4.1993961422283615e-10
3.475431607918863e-10
1.9777989288967137e-10
8.210641387896766e-11
3.05148006976802e-11
1.6864727111409954e-11
2.7896507121652976e-11
5.5194687059169674e-11
8.630728736531126e-11
1.5789721728582025e-10
1.759011743443421e-10
1.4670821214345657e-10
9.86962186487093e-11
6.167994304639188e-11
3.0158100466834544e-11
1.0735688707702468e-10
2.972941363035126e-10
6.076001725877297e-10
8.249957513310908e-10
9.836083439636035e-10
8.429772243737322e-10
5.448055382773203e-10
2.1340403459518545e-10
1.0799563260377095e-11
6.194662939023992e-11
2.6818629989534205e-10
4.12742366633628e-10
3.9823596728292484e-10
2.6778118768429863e-10
1.8186553414897746e-10
1.9176244467984398e-10
2.530325619955684e-10
2.6915478762137885e-10
1.6011319166724053e-10
2.2978993450290082e-11
4.6112389449854065e-11
3.588911680026255e-10
8.213313679657263e-10
1.2155584194287911e-09
1.3145273280323852e-09
9.415887171821579e-10
4.699883896509546e-10
6.330113500451928e-11
5.67315790972019e-11
3.9620781863762767e-10
8.222397547999749e-10
1.0325689645328257e-09
8.019136137016196e-10
4.094038521599954e-10
1.8920702977915626e-10
1.592815933392477e-10
1.8606216339549332e-10
1.921710485363589e-10
1.544839144333108e-10
6.766642897205826e-11
2.1726581835850143e-11
5.223102640783684e-12
5.2652451207648985e-11
1.8574569931966553e-10
3.900880575750357e-10
4.92349974689242e-10
4.3753068164897754e-10
2.4249407340012993e-10
6.687076395300338e-11
3.3257147198336686e-11
7.008388265217583e-11
9.335140348419032e-11
8.861805414053915e-11
1.2703023242366183e-10
2.455768490785721e-10
3.2276826793010776e-10
2.7824801763239833e-10
1.6351741538888928e-10
1.8144620322457084e-10
3.3298461523536577e-10
4.116018939665562e-10
3.359272845523629e-10
1.6908166865217903e-10
7.655757673456646e-11
1.6945508232000267e-10
3.7193620834252075e-10
5.021932844478721e-10
5.396582677065877e-10
4.529199917646259e-10
3.355968440026116e-10
1.5327053467395273e-10
3.5324009916046966e-11
3.822411907940546e-11
1.71477207796893e-10
2.7023751545921287e-10
3.07762218920857e-10
2.9802592712108873e-10
2.7740823860062603e-10
3.6340203333576805e-10
4.2434630787483713e-10
4.364984360370655e-10
3.306995736477044e-10
2.387700771629806e-10
1.452599742770421e-10
8.881452445262243e-11
2.8293061483860792e-11
4.671281584366918e-11
1.838878934662425e-10
4.662674146127951e-10
7.586556287724284e-10
9.077064101919413e-10
9.41906462815714e-10
7.641703985016471e-10
5.330116226733991e-10
3.1072419458166215e-10
1.33487475080697e-10
1.0175843236844911e-10
2.2133719789080532e-10
4.676395248530195e-10
7.775001645815674e-10
9.063869049022305e-10
8.231982961471839e-10
6.316476751127432e-10
3.591797541199736e-10
1.5615304655347452e-10
2.9096889615647697e-11
5.596111835343746e-12
5.863074386455158e-11
1.7359121480296483e-10
3.0371539168682744e-10
4.3460938365658585e-10
4.631970799376834e-10
5.206611389398397e-10
5.4060929891852e-10
4.0214794255778595e-10
2.2056661398087842e-10
5.851478093081246e-11
7.0210854632003455e-31
1.6823885541609506e-10
5.912107895043045e-10
1.4021257031425519e-09
3.1995778924919123e-09
7.3249409900137045e-09
1.643831015343529e-08
2.942258142598739e-08
4.022791542697421e-08
4.2132581602729924e-08
3.593245324115121e-08
2.1856433236235818e-08
1.0618985420542184e-08
4.621186112707793e-09
3.6579416179974463e-09
6.595691819775656e-09
8.627224327128598e-09
7.498569364163507e-09
3.388745315623931e-09
4.493517805994135e-10
7.794543688282602e-10
5.3073639728171016e-09
1.1488533559092643e-08
2.0183716797159564e-08
2.3800391262086063e-08
2.3824504678666882e-08
1.6969736692905536e-08
6.119903035620337e-09
1.1021658004514874e-09
4.2264446855017055e-09
1.2392636294001206e-08
1.8884011631657528e-08
1.8551101451142848e-08
1.4037364512617498e-08
1.2266711283348337e-08
1.2848878698812674e-08
1.5281408888196886e-08
1.50433240818321e-08
1.2265338555736164e-08
1.0838023776017453e-08
1.156418916330998e-08
1.3165827000348486e-08
1.2292076271039017e-08
9.356784459216179e-09
8.51015396862932e-09
1.1850019832153612e-08
1.5458557500756075e-08
1.6673479821884695e-08
1.2566443638162334e-08
5.624651259176064e-09
5.747579198460757e-10
3.134259064776656e-09
1.3269077080393956e-08
2.781376570163845e-08
3.5880847257751077e-08
3.7351292938076676e-08
3.3824060511031665e-08
3.032751711401974e-08
2.7188377936278618e-08
2.8460282710447874e-08
2.7497654977082907e-08
2.421780444671984e-08
1.9160310230893367e-08
1.5633200540180114e-08
1.583402884787013e-08
2.115736508554257e-08
2.7894181577918516e-08
3.050259512795459e-08
2.952943502291148e-08
2.263151155293996e-08
1.7294149644329645e-08
1.3185080785802301e-08
9.240211472559216e-09
7.484695683559102e-09
6.620673960998163e-09
9.219000577295894e-09
1.6215826350949575e-08
2.6393633790611418e-08
3.3003662020035016e-08
3.853376398347368e-08
4.545341036700857e-08
6.024341014001756e-08
7.954739997416912e-08
9.466738578903774e-08
8.912268262174621e-08
6.172684041895557e-08
2.8502688464840214e-08
7.81663720221875e-09
1.53010479144846e-08
4.241355395882112e-08
6.483379292809899e-08
6.45872962578494e-08
4.414381272559249e-08
1.9365811174025757e-08
3.86885305305775e-09
1.469389411579394e-09
3.9984982835933445e-09
3.5091597042194973e-09
8.853724409371055e-10
1.193681990119438e-09
4.940423103294376e-09
6.6669926855846205e-09
5.18358551874701e-09
8.292921496934818e-09
2.527515541156689e-08
5.548954011227572e-08
7.940960286360098e-08
7.691848842188895e-08
4.549588640816199e-08
1.3266473247001057e-08
1.0094810684234119e-08
4.22871056052923e-08
8.546182050575362e-08
1.028460065194841e-07
7.818730500308462e-08
3.4812753747501824e-08
5.906762091406433e-09
3.159080551326242e-09
1.3710986629833556e-08
1.610120502952269e-08
8.02386524261778e-09
2.3732385358541463e-27
1.97491531630235e-28
2.2119227752434504e-29
6.330413597657245e-28
2.0120133874465964e-09
4.2114600435808905e-09
4.0322935118775975e-09
1.960946433217258e-09
1.1944721897841774e-09
2.6509325258089095e-09
4.0428208178558914e-09
3.3977376542662874e-09
1.8971731619724924e-09
1.4292014215691894e-09
1.321273543045182e-09
9.594301423674923e-10
6.204379372277429e-10
1.645175911971017e-09
2.9244704941238525e-09
2.2935951821147907e-09
4.4791918977673434e-10
6.442359139786718e-10
5.371172699127809e-09
1.0661792759527229e-08
1.2151049548880227e-08
8.788577963316738e-09
3.5014655851540996e-09
9.574365891368026e-10
4.66872917880468e-10
9.079851677079979e-10
3.2207090725033297e-09
7.47507701833986e-09
9.68852796149251e-09
6.117410607438715e-09
1.1923480078333548e-09
2.105568186188467e-09
1.1093048365563829e-08
2.2336223947608538e-08
2.6342556752833517e-08
2.0388015657938462e-08
1.0726765706555822e-08
4.394057271806868e-09
1.4358288802213237e-09
1.3115292160150917e-09
4.673562266886816e-09
1.0385718949883197e-08
1.323172298040249e-08
8.564424018645602e-09
2.655363627640182e-09
5.598936540253408e-09
1.9067881524007587e-08
3.305902790254646e-08
3.041858388698519e-08
1.4154336332261419e-08
1.9639597088011895e-09
5.466417181489074e-09
2.1793245378096586e-08
3.3046599045727463e-08
3.143386460991324e-08
2.057752609712199e-08
9.466737137678552e-09
5.211867804896723e-09
5.890281129518084e-09
8.858743372493405e-09
1.1698476591173769e-08
1.058175142434295e-08
5.847771066881257e-09
9.511320758835894e-10
2.8458358143007063e-09
1.2894555406258374e-08
2.178380411146099e-08
1.9734663689683117e-08
8.238461223764756e-09
1.2137147469082063e-09
7.720860046410494e-09
2.1823991749954145e-08
2.8815918321986395e-08
2.2754473806043433e-08
1.0213020972613799e-08
4.49716020736081e-09
8.28766334120111e-09
1.513798335390262e-08
1.676883364078055e-08
1.191064444592648e-08
4.76463973265162e-09
6.802638006655403e-10
8.745646153761881e-11
5.085802123688351e-10
3.444821745394467e-10
3.336527682335542e-11
6.032977088360684e-10
2.113781499906992e-09
3.6768054336934813e-09
3.969752759498326e-09
3.1738386594312415e-09
1.8824807701623865e-09
1.7131485355935493e-09
3.837193777834359e-09
7.262836607299056e-09
9.448326583604332e-09
9.988460334405177e-09
8.327647836063353e-09
4.8097740047555594e-09
2.3229543347780245e-09
1.4372201627163106e-09
1.490474474254993e-09
1.894578164742543e-09
1.487754012818062e-09
1.0714583893024928e-09
7.397406398765509e-10
3.627954220941102e-10
1.899416600530614e-10
1.4842601151748166e-10
2.802937591989235e-10
8.163625112475905e-10
2.0617310990483262e-09
3.726306811648332e-09
5.372274371452682e-09
6.438394261563775e-09
6.417663117177162e-09
4.609949791362798e-09
2.593787842803473e-09
1.0249295196457517e-09
7.357464175061596e-10
8.999490964816145e-10
9.716606772315601e-10
9.369528373751725e-10
6.087062316371752e-10
2.4517058633682237e-10
2.678474189403935e-10
4.4656606022524864e-10
9.317824066021406e-10
1.39479736751248e-09
1.7850500218448368e-09
1.8937923573416885e-09
2.1289414508866346e-09
2.2253788595018205e-09
1.8278788378624314e-09
1.1568988949020713e-09
8.334389197292894e-10
6.715837560933229e-10
3.8723238314673533e-10
1.0376174497043247e-10
1.0295309786727176e-10
5.272328360205263e-10
1.478980099402774e-09
2.275929546875127e-09
2.6510336774907765e-09
2.1940026433228547e-09
1.2485632196223626e-09
5.183289714974042e-10
1.9263665910914236e-10
1.0646521075840974e-10
1.7610765300322482e-10
3.48438130761292e-10
5.448486345870252e-10
9.967881724648815e-10
1.1104452195109655e-09
9.261531848490583e-10
6.230586270431768e-10
3.8937885520590647e-10
1.9038484886616109e-10
6.777324965601921e-10
1.8767859491410813e-09
3.835714625209288e-09
5.208109562640528e-09
6.209413822828256e-09
5.321624670509442e-09
3.439298843786302e-09
1.3471967479687189e-09
6.817648284607788e-11
3.9106241744896e-10
1.6930313044649415e-09
2.605598226540189e-09
2.514020885619364e-09
1.690473874591062e-09
1.1480975823060844e-09
1.2105757154276669e-09
1.597367384816602e-09
1.699145263450953e-09
1.0107773807096759e-09
1.450639174022613e-10
2.9110256151320206e-10
2.2656413939173957e-09
5.184976704058477e-09
7.673689734717925e-09
8.29846982415576e-09
5.944148432423589e-09
2.96698622086457e-09
3.9961326589999354e-10
3.581403651147504e-10
2.501217401071734e-09
5.190711252570264e-09
6.518496961460135e-09
5.0623945071141546e-09
2.5845225432689907e-09
1.1944436556451617e-09
1.0055275897897745e-09
1.1745904519655608e-09
1.2131551876843584e-09
9.752403581910985e-10
4.2717089782645474e-10
1.3715757740596115e-10
3.29728859405986e-11
3.323892689005734e-10
1.1725926482473091e-09
2.4625840068272953e-09
3.1081525052797303e-09
2.762084196637478e-09
1.5308390382873917e-09
4.221479500261633e-10
2.09948798003311e-10
4.424320232423698e-10
5.893173830137802e-10
5.594362570319636e-10
8.019282125546501e-10
1.5503002700143014e-09
2.037601405839342e-09
1.7565498477767143e-09
1.0322678794055554e-09
1.1454503912220223e-09
2.102096109005901e-09
2.598398545094893e-09
2.120672864322294e-09
1.0673944125819214e-09
4.832997586236847e-10
1.0697517329572995e-09
2.347993332372379e-09
3.170292262483621e-09
3.406804677558564e-09
2.859235258381047e-09
2.1185868286254222e-09
9.6758042210339e-10
2.2299668033167955e-10
2.413047579696784e-10
1.0825171938897463e-09
1.7059804079918347e-09
1.942869830293122e-09
1.8814056659683763e-09
1.7512484129525704e-09
2.2941180022386122e-09
2.67885266117837e-09
2.755567740966381e-09
2.087670886906843e-09
1.5073298500489767e-09
9.17010614758386e-10
5.606765530086215e-10
1.7861105809663175e-10
2.94892988843579e-10
1.1608645194476995e-09
2.9434961051308632e-09
4.789311494738899e-09
5.730253067804613e-09
5.946154326478124e-09
4.8241256436798656e-09
3.3648451214020937e-09
1.961568464484218e-09
8.426920918547974e-10
6.42390053333426e-10
1.3972779557267514e-09
2.9521580896945138e-09
4.908275025148296e-09
5.721923172643083e-09
5.19676242113511e-09
3.987523925628199e-09
2.2674632070782293e-09
9.8577740997871e-10
1.836855387507736e-10
3.532765291970933e-11
3.701295882954822e-10
1.095862693046618e-09
1.917322644647744e-09
2.7436423561977543e-09
2.9241134121216474e-09
3.286877844198295e-09
3.4128084354460945e-09
2.538716765331406e-09
1.3924133422743409e-09
3.6939752675074795e-10
5.182594808898168e-11
6.670250500221813e-10
2.7824195823646407e-09
6.034096325104911e-09
1.0246937440173683e-08
1.859976663374474e-08
4.303284702853926e-08
8.50664989752891e-08
1.2081285308596485e-07
1.261612989810857e-07
1.1039548493323597e-07
6.216442525893088e-08
2.7685983296548245e-08
8.611251242981996e-09
7.887495564942003e-09
1.924411942389422e-08
2.746935961005677e-08
2.62492586445666e-08
1.2925632250764813e-08
3.0706715099166152e-09
3.1720778240520157e-09
1.5223525300006138e-08
3.2107351943571126e-08
5.657994800166401e-08
7.221860362767977e-08
7.326049058113251e-08
5.5139829679776125e-08
1.8825686503724427e-08
1.8445632656587748e-09
1.3469617766032696e-08
4.264022477785317e-08
6.441069808314422e-08
5.87080151035635e-08
3.647250645314093e-08
2.715669943244297e-08
3.046107269696715e-08
4.195896975691406e-08
4.1857147895079435e-08
3.496403897756964e-08
3.443469617656785e-08
3.9837386607227867e-08
4.936853776195342e-08
4.785194576740344e-08
3.708055584159809e-08
3.1472926303838834e-08
4.377877918614241e-08
5.6457812915163217e-08
6.463536219472979e-08
5.008426439257859e-08
2.6056733556417426e-08
6.906076746728834e-09
1.2899895141407265e-08
4.417224856244155e-08
9.16141233272657e-08
1.1905887441753534e-07
1.2262405125861255e-07
1.118561012339528e-07
1.0362075860808699e-07
9.74663322561486e-08
1.0405847472531007e-07
1.0343916887646929e-07
9.228336141049314e-08
7.406716849611478e-08
5.995279228582201e-08
5.9441553158612766e-08
7.740436094071305e-08
9.78657814925717e-08
1.0527991269727654e-07
1.0015998701627329e-07
7.644701523514381e-08
5.409632687607294e-08
3.9872074815344894e-08
2.62043652097978e-08
1.7327371199327465e-08
1.1124848302170813e-08
1.6404084936188955e-08
3.893597776237346e-08
7.390865866351904e-08
9.706830390197655e-08
1.1406955723116606e-07
1.3588006721201192e-07
1.8067829798774832e-07
2.4412112791158486e-07
3.03799858533425e-07
2.948747140197112e-07
2.1484415555375819e-07
1.0645519996283397e-07
3.501925491954022e-08
5.670021060026608e-08
1.471063300729897e-07
2.2101725767374425e-07
2.1843154226446408e-07
1.4676430749377034e-07
6.088488437605896e-08
1.4901652450243574e-08
1.162949080393657e-08
2.3633044650619518e-08
1.8768093214887404e-08
5.566399501604272e-09
5.321054078744042e-09
2.1893418528513944e-08
2.977834268307732e-08
1.9688489637355077e-08
2.0448102427331115e-08
7.212917593726559e-08
1.7681753265392088e-07
2.6967710499138186e-07
2.7020570589399597e-07
1.6275623450443378e-07
4.419257747179853e-08
2.7567595803569433e-08
1.3857985989873312e-07
2.9114309580951315e-07
3.4535308991823437e-07
2.568139171887425e-07
1.0416081444621332e-07
1.2109842405583595e-08
1.789407461068539e-08
6.401866705707376e-08
7.281127036428255e-08
3.388625605948758e-08
8.048009871117244e-27
6.84582767670197e-28
6.476557859358968e-29
2.1085385736659995e-27
8.263802049754237e-09
1.788463085392038e-08
1.5858924241368605e-08
6.732499593409673e-09
4.734967324314924e-09
1.2179111703912141e-08
1.8309003616298224e-08
1.3331506009235418e-08
5.330589022794992e-09
3.4393613345173453e-09
4.651331112727403e-09
3.4800507363666098e-09
1.071909195810822e-09
4.927353171863208e-09
1.177051811627606e-08
1.121252538918914e-08
3.1105223035512055e-09
1.4630133251867986e-09
1.6958912415590642e-08
3.775916901046218e-08
4.303111737562678e-08
2.895639366003221e-08
1.0340219181601262e-08
2.8244121821299003e-09
1.7688532427551388e-09
1.598839115983902e-09
7.224741552816478e-09
2.1706188971088946e-08
3.3893588917529415e-08
2.4061797733098104e-08
4.8850941069959005e-09
4.951667753895425e-09
3.50026385279228e-08
7.629207494396639e-08
9.028378861678435e-08
6.959443981045109e-08
3.9368836248710586e-08
2.055424865006361e-08
1.1095051629972877e-08
6.706752375863508e-09
1.4269159181977627e-08
3.530562891632671e-08
4.947289560388795e-08
3.6335493713131586e-08
1.1475341898609627e-08
1.4303956849394212e-08
5.822951147772239e-08
1.0839703948428347e-07
1.029885329991721e-07
4.8524532715281905e-08
7.182713697213572e-09
2.2566787685669036e-08
8.204590167793448e-08
1.2298852521911862e-07
1.1484514667838028e-07
7.654792262864566e-08
4.034695509766406e-08
2.765802563838446e-08
2.8684092826877884e-08
3.528998212217926e-08
4.568453775669023e-08
4.3870032954263234e-08
2.7163378848077588e-08
5.626571698011299e-09
5.306044853504176e-09
3.742689951136242e-08
7.014705065030738e-08
6.562627499555433e-08
2.713816511352347e-08
3.7008178211535826e-09
2.8748809181685034e-08
8.021185210603009e-08
1.0522948117801584e-07
8.203645712466872e-08
3.550700101143251e-08
1.662689012108153e-08
3.266860955155901e-08
6.00705575311112e-08
6.48280669303764e-08
4.390703814629635e-08
1.7019659745257333e-08
1.9830109847564217e-09
7.440626515154854e-10
2.68951781721273e-09
2.0631051365163402e-09
2.779611697693273e-10
1.587979572878236e-09
6.587364533243576e-09
1.1501751390702365e-08
1.2935564608699784e-08
1.0964707925337151e-08
6.802702296361909e-09
6.411942420190847e-09
1.2969289814760816e-08
2.42987987127385e-08
3.254231418255967e-08
3.496279070296067e-08
2.8946317032693353e-08
1.709350402691062e-08
8.55543008167848e-09
5.6673591508846696e-09
6.3409491002700114e-09
7.986760044360772e-09
6.2503839600043315e-09
4.403771854805757e-09
2.9290488123778554e-09
1.1920717399423152e-09
5.231735516084012e-10
6.561240553303524e-10
1.5218273526180216e-09
3.3855603058781077e-09
6.877409330298392e-09
1.2396037790574941e-08
1.7836657026956922e-08
2.1546566421002726e-08
2.2577604214788102e-08
1.621878219544945e-08
8.473576623625729e-09
3.5082412793084503e-09
3.441490368265605e-09
4.524870226867017e-09
4.771454335543571e-09
4.199458564688142e-09
2.4717397402659295e-09
1.0199433161432741e-09
1.0990637617933564e-09
1.7763324019676527e-09
3.7195891503497755e-09
5.160520323224598e-09
6.0179047088073046e-09
6.38557419787656e-09
6.6915125902868645e-09
6.145030020268682e-09
4.944438388153922e-09
3.156443152237643e-09
2.415789362679798e-09
2.4370076445364734e-09
1.7348758839909347e-09
6.683222422736905e-10
4.618230492005326e-10
2.1615879478052383e-09
5.890218200471283e-09
8.639554787568414e-09
9.952181963959587e-09
8.248165463203898e-09
4.396494547405131e-09
1.6600898730680462e-09
3.551467065107975e-10
3.1744157722799674e-11
1.6822413779357776e-10
5.141559947173431e-10
1.1034042356617752e-09
2.5857704946565373e-09
3.0334423802037905e-09
2.7920375197837596e-09
2.1442489297016483e-09
1.2155918250031186e-09
4.5112878657288304e-10
1.7229333866980223e-09
5.355622782198657e-09
1.1582121328679167e-08
1.633456517029994e-08
2.0148003876486553e-08
1.762846220899066e-08
1.1552029535545586e-08
4.4867030887649066e-09
2.1526366813311566e-10
1.2085172493129118e-09
5.537267696400863e-09
8.264375914301696e-09
7.61746847621196e-09
4.754386904889637e-09
2.7434055085023144e-09
3.34657696441224e-09
5.504572876991029e-09
6.511476814660608e-09
4.100361117753409e-09
8.475297081356206e-10
6.561643852672101e-10
6.534169626719998e-09
1.5525355813289324e-08
2.3518150351022915e-08
2.5863380585723326e-08
1.8073334774790526e-08
8.739418691931393e-09
9.725060757305634e-10
1.5765170251362554e-09
8.484615948425452e-09
1.7319649268498853e-08
2.071311915113863e-08
1.524730486692741e-08
7.477340167801297e-09
3.5525579247903616e-09
3.617975500204197e-09
4.5674114966113174e-09
4.457412769285448e-09
3.199165281339012e-09
1.4356570252551082e-09
4.619927044738477e-10
1.761462291053336e-10
7.782961438178411e-10
2.9625206246708198e-09
7.0214548583664015e-09
9.870817198526213e-09
8.784884785096608e-09
4.992890112618815e-09
1.5256407271646787e-09
1.0806085291666835e-09
2.1789752165645957e-09
2.6155775647494825e-09
1.9194889502371275e-09
2.3935911355480357e-09
4.9262608847181916e-09
7.043625869249695e-09
5.9133438413509004e-09
2.560607728157345e-09
2.749828834302981e-09
6.585841746184083e-09
9.41386457681462e-09
7.95362951489092e-09
3.7038631511810136e-09
1.0814951578400362e-09
2.66111868303719e-09
7.107498799350668e-09
1.0179685203159012e-08
1.0932198081650112e-08
9.173858935620605e-09
6.561607763993846e-09
2.6176990988220095e-09
2.921645957828318e-10
5.951940869817221e-10
3.5886668870332565e-09
5.7406275322156875e-09
6.1063802235524e-09
5.268361822107939e-09
3.8234899657697546e-09
5.105112727900969e-09
7.05213267854388e-09
8.036551267327787e-09
6.816744183008567e-09
5.322028136764068e-09
3.4382523564317947e-09
2.3916569456488946e-09
8.346642029546341e-10
8.827619112467292e-10
3.3452865256660614e-09
8.943899347041566e-09
1.5043668896752956e-08
1.7832652929926566e-08
1.833761606105975e-08
1.476215325606614e-08
1.0261363989319024e-08
6.242062541265002e-09
3.061470897647046e-09
2.4005321464310164e-09
4.255888861677547e-09
8.78068785514397e-09
1.491120797438741e-08
1.7619662443947305e-08
1.6040526299135445e-08
1.2188511014353477e-08
6.5642170310656494e-09
2.5446852158594887e-09
4.0982141380261096e-10
6.653437757269988e-11
9.347903587175454e-10
2.862201577831213e-09
5.024241248805234e-09
7.11566732559209e-09
7.910552686709701e-09
9.491990624116388e-09
1.0198128791382715e-08
7.731911982720693e-09
4.339780055701247e-09
1.1298138888752356e-09
2.0610220968551342e-10
1.3734025013080385e-09
6.432899780527614e-09
1.291112104749138e-08
1.6768293967670198e-08
1.7364517064584613e-08
4.5081548943032294e-08
1.0491084619948643e-07
1.6079605175305399e-07
1.7052479934654062e-07
1.472265456933979e-07
8.133776133018824e-08
2.8945744812690447e-08
3.969863438815959e-09
4.567190318621021e-09
2.3552885888017542e-08
3.8556032553034675e-08
3.949649990105193e-08
2.146895441760915e-08
8.062211106963938e-09
8.195425798900985e-09
2.0492172873629382e-08
3.6119627016030124e-08
6.63815813111452e-08
8.66510226224933e-08
9.720481328019694e-08
7.81434161080979e-08
2.6653431927363797e-08
6.483607816221157e-10
1.9926234807241673e-08
6.758528408072304e-08
9.770696406996084e-08
7.841172698291208e-08
3.5574872448626095e-08
1.8215807015846184e-08
2.9768981729634698e-08
5.081619286808251e-08
5.09854249926527e-08
3.988773323127128e-08
4.3999546535926465e-08
6.289085349644547e-08
8.537052360873232e-08
8.534136156780567e-08
6.468950522704542e-08
5.084440206806281e-08
6.964755565935724e-08
9.672840822831506e-08
1.1570973239572507e-07
9.841211861805886e-08
6.024895535071405e-08
2.6482499411422397e-08
3.0572688956251776e-08
7.346225962441219e-08
1.476021955104886e-07
1.8952034872059654e-07
1.931249387497909e-07
1.6991365912706987e-07
1.5750617500558886e-07
1.506470286676904e-07
1.7089165571201636e-07
1.7823355563381732e-07
1.631502836753267e-07
1.313030054875943e-07
1.0244300233140624e-07
9.554437660235325e-08
1.2029847584643456e-07
1.5200679322182124e-07
1.6162327736463902e-07
1.5257908770189145e-07
1.1225725968430651e-07
7.523550769236065e-08
5.6553600788554954e-08
3.9415942735127826e-08
2.3971691940302788e-08
7.0021766702295635e-09
6.969012133828909e-09
3.718413594635226e-08
9.110179649084792e-08
1.241834531310964e-07
1.4515690413930963e-07
1.654974954721094e-07
2.2771186707260074e-07
3.218413094736615e-07
4.296528250517226e-07
4.3641663192795937e-07
3.2856549924233635e-07
1.7490692377668652e-07
6.885135989522205e-08
1.0465474457852036e-07
2.447714539611244e-07
3.508245013472845e-07
3.3271126500732234e-07
2.1383249427898663e-07
8.493875012662037e-08
3.439535848265723e-08
4.327787087433462e-08
6.595274447827486e-08
4.806828226819494e-08
1.4051827564352665e-08
1.3211893913901384e-08
5.0664880915003965e-08
6.938899140429614e-08
4.3272380296677744e-08
2.0214259882490307e-08
8.139926801169716e-08
2.464719481436954e-07
4.1685336877510944e-07
4.325969474632028e-07
2.685107687579682e-07
6.985463030564209e-08
2.9412779755421353e-08
1.9933724235950814e-07
4.379245520604569e-07
5.172541199922514e-07
3.599147271417782e-07
1.228820205832525e-07
5.8661988562148295e-09
6.150622520213888e-08
1.604414041393515e-07
1.6666053150590528e-07
7.560902691207089e-08
1.7448675707532926e-26
1.5286134927553987e-27
1.1598641647553963e-28
4.520194978608707e-27
1.8823509357519487e-08
3.987435624957543e-08
3.642618890856354e-08
1.5674047561600443e-08
9.134157086493452e-09
2.3024969248594002e-08
3.4318517044255545e-08