# vtk DataFile Version 4.1 
COMMENT
ASCII
DATASET STRUCTURED_POINTS 
DIMENSIONS 400 400 1 
ORIGIN 0 0 0
SPACING 0.002506265664160401 0.002506265664160401 0 
POINT_DATA 160000
SCALARS U double 1
LOOKUP_TABLE default
6.511029082254346e-07
5.217326873720228e-12
1.5337777629723222e-11
4.330614042657357e-11
2.9856214276660257e-10
9.83654532922075e-10
2.082698526114878e-09
2.6623398885421395e-09
2.0923190233667796e-09
7.603441323932186e-10
2.4378707973987503e-10
1.519287457641599e-09
4.806834582169952e-09
7.545911483989663e-09
7.642732498254699e-09
4.9871346116481665e-09
1.79216785868376e-09
1.4518574486086528e-09
4.415571784601793e-09
8.096866014946005e-09
9.592658159940391e-09
8.09393917579058e-09
4.183639595722246e-09
2.1274743872872697e-09
2.4504765160691474e-09
5.001385345669999e-09
7.069405045621134e-09
6.729660668192142e-09
5.262196936918154e-09
2.8435891598170236e-09
1.360635766543662e-09
1.9334040173505646e-09
3.3186373254945047e-09
4.819793554229552e-09
5.004624674494551e-09
3.4541260942666022e-09
1.6494389386316252e-09
1.0004500647688268e-09
2.8672091752578825e-09
6.258899278323482e-09
7.827014612640363e-09
7.705088565221636e-09
6.29383252288345e-09
4.3568600253981115e-09
3.5824724451802898e-09
4.75593444022191e-09
8.58003751559703e-09
1.295596864486067e-08
1.5934027440003842e-08
1.54252001558399e-08
1.1275221316615555e-08
6.596016914188778e-09
4.500661238772637e-09
6.681476364048497e-09
1.2025003449769047e-08
1.6633394820074493e-08
1.7343877804733555e-08
1.419476756726587e-08
9.801967323808229e-09
7.2814987832123465e-09
7.133799300475132e-09
8.68636817266212e-09
9.54049986211282e-09
1.0030385282549593e-08
9.750545799720752e-09
9.983548801988868e-09
1.0362528740888787e-08
1.1151997967127191e-08
1.1060688610379254e-08
1.0043320997013839e-08
7.716169288296215e-09
5.4917518775028785e-09
5.119717739034125e-09
6.222068077192182e-09
7.397329618189969e-09
8.26317635431377e-09
7.86534542614477e-09
7.088806688295382e-09
6.42479050961115e-09
5.816267532250076e-09
5.022599398275331e-09
3.3162578073756825e-09
1.6133196090028655e-09
6.800036748003251e-10
1.5535415458662506e-09
4.206070263161103e-09
6.9172891412342425e-09
7.636439028522747e-09
6.069763050382048e-09
3.622900197547747e-09
1.2086686315288552e-09
7.879385893135049e-11
1.862768708518666e-10
9.200999000707353e-10
1.5675439634023887e-09
1.6600470561336912e-09
1.5322078489470445e-09
1.2237137011567995e-09
1.210084676678403e-09
1.411172931692721e-09
1.3952667583455132e-09
8.67426406845323e-10
2.446153359195722e-10
2.761028932042914e-12
1.222825964515012e-10
3.6017342432100224e-10
4.862481948162655e-10
5.727397427771963e-10
6.614004596146704e-10
7.609271976787837e-10
6.209847364500004e-10
5.092828193363362e-10
4.914187400403537e-10
4.4139343445785803e-10
1.892809497439759e-10
8.648164142262479e-11
1.9843187103592705e-10
2.436728311524493e-10
1.7349866537200516e-10
8.669203604853397e-11
1.5821863767823814e-29
1.4067920286451148e-30
1.45988768197238e-31
5.22223162596423e-32
3.876826630947111e-14
1.6271196997246306e-13
4.141878546317835e-13
7.081708156821486e-13
1.2478856235284796e-12
1.8406033384993396e-12
2.870132419023354e-12
3.576641845928866e-12
4.6717632958236985e-12
5.314624671586273e-12
6.673639707063916e-12
7.756206264316957e-12
9.940316573295276e-12
1.1380404348400533e-11
1.375447052051808e-11
1.547394308295035e-11
1.770525668440974e-11
2.0231008014624942e-11
2.2018995823854578e-11
2.5482466704402318e-11
2.7108356264157458e-11
3.140031072536824e-11
3.356410983052253e-11
3.778777688200857e-11
4.03182596182344e-11
4.47392290463896e-11
4.631932038300647e-11
5.049149203356765e-11
5.2120638150746917e-11
5.352555610842639e-11
5.753093387534246e-11
5.6139116658118854e-11
5.941547200073442e-11
5.809657556540853e-11
5.956770403403287e-11
5.7982104785139005e-11
5.848228415775747e-11
5.831900615632888e-11
5.6590063695958256e-11
6.160025756550081e-11
5.886284453247325e-11
6.555823120066061e-11
7.045661592397827e-11
7.391279353705341e-11
8.610305066361761e-11
9.35041215158715e-11
1.0318263501264037e-10
1.1268032917158649e-10
1.2333122110329317e-10
1.2928422688201402e-10
1.3028773431101804e-10
1.314868927894683e-10
1.2900038028960935e-10
1.218141983793771e-10
1.0189828486204535e-10
8.872718017716659e-11
8.187971561607316e-11
6.601332261821811e-11
5.289146220474374e-11
4.63395213530731e-11
6.76860961642947e-11
9.41450309949967e-11
8.10099732718594e-11
7.503071000295527e-11
1.2787537191678841e-10
2.0682749657059322e-10
2.065347394626489e-10
1.0924415909365682e-10
7.164964939831377e-11
1.7264291129308735e-10
2.9244949008594273e-10
2.954244334480572e-10
2.1651634489429621e-10
2.0352884498464982e-10
2.60936327698602e-10
3.1195189597133395e-10
3.718774354503158e-10
4.338205602716525e-10
4.6157702036117573e-10
4.34850201869612e-10
3.513297673697357e-10
3.184949624171189e-10
3.8367064519731877e-10
4.0515739729592763e-10
3.2606468506425156e-10
2.543505230531557e-10
2.66840844213954e-10
3.1348210830986784e-10
2.940423796879464e-10
2.3851318696449994e-10
2.2738876476333397e-10
2.100880969057409e-10
1.661756931853944e-10
1.4971359477686005e-10
1.4458088241477699e-10
1.5817878446873954e-10
1.9814433614962278e-10
1.9444234912680147e-10
1.9063328872669068e-10
2.59973949245383e-10
3.1037906387221884e-10
3.1794003960244626e-10
3.703044218960461e-10
4.33978424115469e-10
4.6343934887891643e-10
4.916134000302053e-10
4.978376302774942e-10
4.791541711838291e-10
4.864073502368782e-10
4.865907191473658e-10
4.379689847495998e-10
3.8516078229492147e-10
3.4802392135128234e-10
3.129945155448918e-10
2.933023921955775e-10
2.7023130436389783e-10
2.1513578578755316e-10
1.735682421129438e-10
1.8252160869273417e-10
1.9035542152883134e-10
1.640810272526596e-10
1.5164809419025073e-10
1.7635151492799025e-10
2.0589096403097374e-10
2.37022049688231e-10
2.824646135787793e-10
3.40835029347007e-10
4.529031783262581e-10
6.293145156501362e-10
7.798508795423948e-10
9.199599499889279e-10
1.1978168586330797e-09
1.5619252434484104e-09
1.8208413985575626e-09
2.0179903228758027e-09
2.2762007284356395e-09
2.5157965824128007e-09
2.6761372642272544e-09
2.786271551781155e-09
2.7479666151057123e-09
2.5307404920137842e-09
2.3140591270010904e-09
2.090592407237712e-09
1.6830379410952495e-09
1.2308648197752912e-09
9.763035216989558e-10
7.956522879987709e-10
5.485109345510433e-10
4.0181912030814946e-10
4.1639916815679737e-10
4.158044257863591e-10
3.734811899981964e-10
3.750281312701348e-10
3.4663810390208807e-10
2.1811660277794556e-10
7.797534697659553e-11
7.46566616433187e-12
4.3662623361431996e-11
2.600262706243458e-10
7.196327329487497e-10
1.4971333162130018e-09
2.6625996176025058e-09
4.0478872101426e-09
5.343876859165228e-09
6.544554160072798e-09
7.772824322664909e-09
8.722912220548859e-09
8.986605346443954e-09
8.742802932111743e-09
8.370930024045767e-09
7.729945658941863e-09
6.553602674848338e-09
5.113435037591296e-09
3.850886832474224e-09
2.811152293678305e-09
1.8856679841817023e-09
1.144414188531117e-09
6.469122495565217e-10
3.1921330593493073e-10
1.2902171876237782e-10
1.2363953362776423e-10
3.7286426708661083e-10
1.0020116303375966e-09
2.042883083187894e-09
3.2451509615550096e-09
4.3821360885172495e-09
5.6092106337943085e-09
7.050733415125981e-09
8.248269953189105e-09
8.590434322412418e-09
8.095335149475821e-09
7.223299617854496e-09
6.139443233902124e-09
4.703719467189577e-09
3.0084954693216697e-09
1.4531966766023517e-09
4.0333561438919943e-10
6.675111230488147e-11
5.145725524333403e-10
1.5874651704154261e-09
2.954890099117278e-09
4.3754129485406065e-09
5.673954253031004e-09
6.473279110132624e-09
6.354036696938999e-09
5.397083261793105e-09
4.197980466507527e-09
3.2017535267134756e-09
2.361054294099634e-09
1.5420392371831472e-09
8.82753913771059e-10
5.571117274783554e-10
5.02410309433581e-10
5.795478714002709e-10
7.756339857640994e-10
1.1151885070864709e-09
1.5621670050161222e-09
2.111616424680125e-09
2.7657410636353357e-09
3.3863323721333863e-09
3.807963310942824e-09
4.033268520270457e-09
3.988093038700707e-09
3.4534677073904412e-09
2.520212182132011e-09
1.556798418471449e-09
6.915096894045697e-10
1.2640058171172118e-10
6.482070788692017e-11
2.0321439741352595e-10
3.766727345397081e-10
7.019123737587551e-10
1.0784123557026296e-09
1.2234378859281275e-09
1.249002158267966e-09
1.4403024570598697e-09
1.582759462481156e-09
1.3755307983933437e-09
1.0462101006388048e-09
8.902587922110788e-10
8.372222520231781e-10
7.287371151892057e-10
5.431553443299712e-10
3.134299203373173e-10
9.346695030791693e-11
4.454317708440997e-12
4.0557898245092144e-11
2.0065016374020634e-10
4.0534626883768544e-10
4.656472579844059e-10
4.4789014236958216e-10
4.634397822022852e-10
4.050282570041922e-10
3.026629969504392e-10
2.711400864812011e-10
2.7430370370424766e-10
2.231931777901146e-10
1.5915251375743627e-10
1.0976903380641065e-10
6.865975572025351e-11
3.939953868435345e-11
1.9987789209209186e-11
2.3307604446699856e-11
4.4087250079845065e-11
5.403765087528137e-11
5.6919529462848493e-11
6.896273487095044e-11
6.874235290549947e-11
8.089051172462891e-11
1.1205522359196908e-10
1.0081319160142847e-10
4.3564157494944293e-11
1.3580779073568568e-11
1.0164375327062937e-11
6.452993491339078e-12
3.680726462066479e-31
3.775343757488769e-11
3.2936424143521176e-11
9.682574269519769e-11
2.7338701285768867e-10
1.8847907377418148e-09
6.209705408761777e-09
1.314785208585044e-08
1.6807065745664637e-08
1.3208585251632372e-08
4.799970836729208e-09
1.53900164842413e-09
9.591098528418365e-09
3.034503039929422e-08
4.7636528667204656e-08
4.824774933039557e-08
3.1483245118769775e-08
1.13137631892143e-08
9.165420124272885e-09
2.7875030385073013e-08
5.111464544129006e-08
6.055742058467552e-08
5.109616862008329e-08
2.6410867389277233e-08
1.3430517287908929e-08
1.546959503218573e-08
3.157320847193131e-08
4.4628394704911116e-08
4.24836249432652e-08
3.321968403284833e-08
1.7951272926641392e-08
8.589547443818114e-09
1.2205371888236557e-08
2.0950200970074207e-08
3.042683899794057e-08
3.159365800685373e-08
2.180552701403727e-08
1.0412730847908877e-08
6.315733797246893e-09
1.810038354701584e-08
3.951175885505677e-08
4.9411102524163e-08
4.864139648328719e-08
3.9732288675668885e-08
2.7504389355643724e-08
2.2615763741250823e-08
3.002370327052821e-08
5.416485522585664e-08
8.178963841171336e-08
1.00589803702342e-07
9.737763171223063e-08
7.117926106311184e-08
4.163994627935804e-08
2.8412190969514855e-08
4.217944260684127e-08
7.59125551331398e-08
1.0500483485137279e-07
1.0949003761820648e-07
8.961004294538237e-08
6.187876685358602e-08
4.59673196886371e-08
4.5034908719005284e-08
5.483610924258225e-08
6.022815085298476e-08
6.332074489199454e-08
6.155414829537719e-08
6.302507122107542e-08
6.541753086786634e-08
7.040136529361788e-08
6.98249391323071e-08
6.340240666793961e-08
4.871134789784002e-08
3.466883971550696e-08
3.232022816076669e-08
3.9279247438475545e-08
4.669854730807907e-08
5.2164544749777065e-08
4.9653080832577344e-08
4.4750875191119284e-08
4.0559012379251925e-08
3.6717472186630014e-08
3.170713050735746e-08
2.0935179327781964e-08
1.0184713399658756e-08
4.2927901575786065e-09
9.807340908036084e-09
2.655246978346682e-08
4.366810333978733e-08
4.8208019331980085e-08
3.8317762163808075e-08
2.2870979799468457e-08
7.630195243760459e-09
4.974171679255412e-10
1.1759458770752096e-09
5.808491838183848e-09
9.895736665895903e-09
1.047969875424656e-08
9.67266357090783e-09
7.725173152281153e-09
7.639134584687477e-09
8.90858313904065e-09
8.80816917523423e-09
5.475969733285324e-09
1.544230340720832e-09
1.743007907676961e-11
7.719568966216268e-10
2.2737361403239324e-09
3.069632624353915e-09
3.6156444762890484e-09
4.175350058344224e-09
4.8036516652480135e-09
3.920209939191687e-09
3.2150477347241856e-09
3.1022737209682814e-09
2.7864693402089303e-09
1.1949103044430808e-09
5.459493130229016e-10
1.2526790876285534e-09
1.5382804093635291e-09
1.0952784384300092e-09
5.47277511697086e-10
9.988172648773917e-29
8.880926968668348e-30
9.216114124944255e-31
3.296738731760196e-31
2.447399009844355e-13
1.027183189007203e-12
2.6147234370079147e-12
4.470606292440121e-12
7.877767901827725e-12
1.1619531170675535e-11
1.8118837670912012e-11
2.2578955794460468e-11
2.949233987704234e-11
3.3550654690372377e-11
4.212997063305876e-11
4.896409702695541e-11
6.275215080504893e-11
7.184327024471431e-11
8.683049498302047e-11
9.768534057544047e-11
1.1177138366870574e-10
1.277161805170796e-10
1.3900355550308295e-10
1.608680751491587e-10
1.7113214129773678e-10
1.9822678879838649e-10
2.1188662012843227e-10
2.3855017654646526e-10
2.545248422527685e-10
2.8243394738181536e-10
2.9240889426705957e-10
3.1874736575034474e-10
3.2903199019614373e-10
3.379010863561063e-10
3.631866059678206e-10
3.544002133751623e-10
3.7508349272896903e-10
3.667574411997695e-10
3.7604451720343754e-10
3.660347994596119e-10
3.6919237811303724e-10
3.681616216282469e-10
3.5724699358733494e-10
3.888758093243211e-10
3.7159481488137387e-10
4.1386207174409236e-10
4.4478504835074956e-10
4.666035263826648e-10
5.435593102269703e-10
5.902814755438366e-10
6.513808916479054e-10
7.113388146947007e-10
7.785767514121597e-10
8.161574374612544e-10
8.22492472070516e-10
8.300626307394082e-10
8.143655444123013e-10
7.689999499044881e-10
6.432729271034818e-10
5.601251579796056e-10
5.168978497141587e-10
4.167350149802637e-10
3.338981196522737e-10
2.925364208212374e-10
4.272950546985256e-10
5.943274682433545e-10
5.114072597170288e-10
4.73660812952811e-10
8.072634873955397e-10
1.305679769827092e-09
1.3038316256506453e-09
6.896466420830833e-10
4.5231654052657215e-10
1.0898761548491672e-09
1.8462022179489793e-09
1.864982715845537e-09
1.366844428583499e-09
1.2848557366840702e-09
1.64726300873033e-09
1.9693188114857622e-09
2.34762230541688e-09
2.7386625988987903e-09
2.9138861500310927e-09
2.7451626157095107e-09
2.217907083916926e-09
2.010624487145671e-09
2.422071571802182e-09
2.5577151298378426e-09
2.0584113331281622e-09
1.6056875314066095e-09
1.684537587268169e-09
1.978978877613777e-09
1.8562579589089074e-09
1.505708129819391e-09
1.4354808473742828e-09
1.3262635895110515e-09
1.0490493016005128e-09
9.451258425956809e-10
9.127235807754014e-10
9.985656758465917e-10
1.250863910776384e-09
1.2274936643439399e-09
1.2034474751817724e-09
1.6411876169274e-09
1.959389691387129e-09
2.007121319022732e-09
2.3376920398113445e-09
2.739659176388128e-09
2.9256428299247462e-09
3.103502588575144e-09
3.1427954855611932e-09
3.024848815154802e-09
3.0706373554288356e-09
3.071794943664485e-09
2.7648511570321254e-09
2.431478647238811e-09
2.1970376330942458e-09
1.975900756862429e-09
1.851586497354077e-09
1.705941198014265e-09
1.3581291072330334e-09
1.0957176689220869e-09
1.1522393104296916e-09
1.2016933294083179e-09
1.0358259005621295e-09
9.573381296014587e-10
1.1132881712429699e-09
1.2997675405005211e-09
1.4962947403622743e-09
1.7831687650677506e-09
2.151654930053839e-09
2.8591291169506186e-09
3.972794940553107e-09
4.923114836197959e-09
5.807608348349895e-09
7.561689167094115e-09
9.860266290351675e-09
1.1494776166518197e-08
1.2739356149323526e-08
1.436941070439211e-08
1.5881953594769606e-08
1.6894167096343168e-08
1.7589433023784138e-08
1.7347618073011565e-08
1.597629289090604e-08
1.4608406708040443e-08
1.3197685309471108e-08
1.0624837741482152e-08
7.770317395994477e-09
6.163299264506568e-09
5.022867430501698e-09
3.462690612453489e-09
2.5366409457893326e-09
2.628683221766853e-09
2.624928677065514e-09
2.3577466356130877e-09
2.3675123097007744e-09
2.188289116392703e-09
1.3769466847140034e-09
4.922499898742399e-10
4.712994858361926e-11
2.756374513344428e-10
1.641517916172781e-09
4.542964144981866e-09
9.451241813228981e-09
1.6808705387324374e-08
2.5553877160724084e-08
3.3735320608484455e-08
4.1315067440407893e-08
4.9069005044305626e-08
5.506680789157462e-08
5.673147427120263e-08
5.519237581714422e-08
5.2844782092618365e-08
4.879831664596062e-08
4.137218974225506e-08
3.2280566141403743e-08
2.4310234936963453e-08
1.774650247485836e-08
1.1904019438326176e-08
7.224563846897222e-09
4.083887544473523e-09
2.015159312613973e-09
8.145002518988532e-10
7.805230952622811e-10
2.3538520675379718e-09
6.325591792949632e-09
1.2896501471360337e-08
2.0486289447936723e-08
2.7663954427129612e-08
3.541034422734262e-08
4.451052270717661e-08
5.207044224062276e-08
5.42304891505269e-08
5.110498125201209e-08
4.5599914609097154e-08
3.875764567779216e-08
2.9694075754357443e-08
1.8992308745414032e-08
9.173874526746211e-09
2.546214410031373e-09
4.2139260202374755e-10
3.2484412515779082e-09
1.0021497105966706e-08
1.865390380124318e-08
2.762151196661168e-08
3.581906374125834e-08
4.0865115706023597e-08
4.011235115975284e-08
3.407120691319917e-08
2.6501399766144522e-08
2.021232610324363e-08
1.4905082150027766e-08
9.734728068820534e-09
5.572730638129465e-09
3.5169864943640963e-09
3.1716623179070306e-09
3.6586234610029863e-09
4.896494038726035e-09
7.040065259163938e-09
9.861792505160227e-09
1.3330407673326051e-08
1.745982625736698e-08
2.1377552528157396e-08
2.403926335609265e-08
2.5461590941802906e-08
2.5176402979100437e-08
2.180137068840756e-08
1.590982880150285e-08
9.827901194961278e-09
4.365426391876253e-09
7.979532952430267e-10
4.092061662842586e-10
1.2828706629434153e-09
2.3778945134893336e-09
4.4310974208176145e-09
6.807901365725375e-09
7.72343196036877e-09
7.884816465707426e-09
9.092474703785138e-09
9.99179047723326e-09
8.683578179960689e-09
6.604611988457797e-09
5.620108129597582e-09
5.2852941482209414e-09
4.600439132134162e-09
3.428881346649457e-09
1.978649420548748e-09
5.900468177007015e-10
2.811962924044254e-11
2.5603765516374663e-10
1.2666829311965383e-09
2.558907455593644e-09
2.939581122948908e-09
2.827482359422836e-09
2.925645565448629e-09
2.5568998810475006e-09
1.9106789897181123e-09
1.7116782419055175e-09
1.7316498176200586e-09
1.408994557474173e-09
1.0047127242546627e-09
6.929601197661758e-10
4.3344166289131156e-10
2.487250556800214e-10
1.2618076632342347e-10
1.47138403325406e-10
2.7831807419722937e-10
3.4113388561347496e-10
3.593268755847093e-10
4.3535433772567233e-10
4.3396309004973344e-10
5.106531118011214e-10
7.073925903152264e-10
6.364228499026508e-10
2.7501584689584926e-10
8.573399953519896e-11
6.4166609650695e-11
4.0737054773525114e-11
1.2218254651901221e-11
1.5823276492940152e-10
7.418890737744966e-10
8.497855401848133e-10
1.5333319164079804e-10
3.844142788215785e-09
1.882968518694265e-08
4.705038809011768e-08
6.81606824599232e-08
5.852804021449885e-08
2.736256755286527e-08
6.05666373402982e-09
3.10756482620605e-08
1.0830749784215263e-07
1.8219141224798915e-07
1.8863544669809202e-07
1.2830328827916363e-07
4.819202389192638e-08
3.338615725584869e-08
1.0649335912268919e-07
1.9742027903655705e-07
2.3718076225783174e-07
1.9147040661509923e-07
9.76051036162303e-08
5.209211223177403e-08
6.949193521195266e-08
1.3050256112276537e-07
1.7735995023897682e-07
1.63188826641534e-07
1.2389322536645163e-07
6.689741666161809e-08
3.9369888871024486e-08
5.9746422452859e-08
9.548091226462198e-08
1.2754873930885686e-07
1.234829018864904e-07
8.277319585165218e-08
4.72337763016304e-08
4.2687085031780346e-08
8.751255893930548e-08
1.5927621803585639e-07
1.9496463876235555e-07
1.9440732790651064e-07
1.6042911424179252e-07
1.1568000149634172e-07
1.0572836328940829e-07
1.3785371897944526e-07
2.236660873607344e-07
3.0705741548958525e-07
3.7324282971531775e-07
3.646082131769701e-07
2.7693365369826383e-07
1.78039460045499e-07
1.3442800004851912e-07
1.892966936361329e-07
3.0561871160276806e-07
4.0022414803743915e-07
4.067429502992511e-07
3.4119983908374134e-07
2.4555345454013015e-07
1.9948360371783774e-07
2.0572186998831314e-07
2.3628646367712308e-07
2.570274006186042e-07
2.6513446173074435e-07
2.605277876169872e-07
2.6184454788894244e-07
2.7808378017644195e-07
2.964045156258734e-07
2.924211519648762e-07
2.606830898373879e-07
2.022360785187994e-07
1.5886344273045472e-07
1.5545454531306142e-07
1.8264426975031436e-07
2.1230253053574755e-07
2.2562712666588163e-07
2.1516406569242588e-07
1.8838803867903297e-07
1.6545321668502536e-07
1.469279116633595e-07
1.2466378326505044e-07
8.833147895532952e-08
5.245524185070811e-08
3.094741858535396e-08
4.9973455530253666e-08
1.0206756576831906e-07
1.50328764596588e-07
1.5970011673038032e-07
1.2323120581137138e-07
7.394162972784818e-08
2.695181133006485e-08
4.80638683095035e-09
6.810997596109752e-09
2.145592097375911e-08
3.4025482082414714e-08
3.751641778912871e-08
3.591386718109786e-08
2.9457775325185235e-08
3.076320497762057e-08
3.290109790389928e-08
2.8852764020168898e-08
1.54857077152649e-08
3.801770891106034e-09
6.795243971377461e-10
5.7607494556289e-09
1.0730434779640123e-08
1.1405095883449761e-08
1.1694240339171585e-08
1.4657664077319631e-08
1.84483896321734e-08
1.4649426688102108e-08
1.0163122519019894e-08
8.837772225885019e-09
7.619089643872747e-09
3.643034486894767e-09
8.20507209712229e-10
4.581822724655662e-09
6.680942414386578e-09
5.016743478123492e-09
1.9462106240468653e-09
2.5668195557318186e-28
2.3043081756641333e-29
2.2720756870643254e-30
4.75750372545731e-31
2.573786488754754e-13
1.1844142627699053e-12
2.8572492525881614e-12
5.483494764086246e-12
1.0280631587560548e-11
1.6774265527984138e-11
2.5820927842192257e-11
3.260300711853147e-11
3.9653337745615487e-11
4.572371582668731e-11
5.439091079859627e-11
6.730323533286292e-11
8.327509388593246e-11
1.0232499166274828e-10
1.1805674405457615e-10
1.3954097784129338e-10
1.5087474048706335e-10
1.7593611568061088e-10
1.9064362267657326e-10
2.1581669135955268e-10
2.39318543565068e-10
2.613160466884723e-10
2.9752556162279744e-10
3.1826418025962817e-10
3.60590478238324e-10
3.8508811181167145e-10
4.123426264116229e-10
4.4406121419579976e-10
4.6030560649221315e-10
4.864808745720162e-10
5.000280696987494e-10
5.182700368807593e-10
5.21158484675914e-10
5.348061943931907e-10
5.34276046076918e-10
5.220247960451507e-10
5.359315515896568e-10
5.053083175794169e-10
5.122715457066201e-10
5.140686941390202e-10
4.936614890344309e-10
5.351225646706358e-10
5.501813610243661e-10
5.743226014061936e-10
6.467254546842852e-10
7.116090441195089e-10
7.578920151144453e-10
8.475372352113082e-10
9.277883518280402e-10
9.646239766253902e-10
1.0135559108946766e-09
9.724056095443137e-10
9.842504541334928e-10
9.68638565312523e-10
7.282712455313741e-10
6.178719637552206e-10
5.688050150265357e-10
4.216645843966172e-10
2.836740024680002e-10
1.831668766384877e-10
4.342732695077253e-10
6.93344922084606e-10
5.042917824056376e-10
5.306807284739129e-10
1.275694063728895e-09
2.2404599488992674e-09
2.1754104493853032e-09
1.0307162668019732e-09
9.21347675266411e-10
2.5267379618425737e-09
3.8640804788617484e-09
3.629810443147195e-09
2.981840256668114e-09
3.6394342823930717e-09
4.928873466743853e-09
5.424587948871906e-09
5.8086646828945716e-09
6.55085646251156e-09
6.89732704531181e-09
6.557427768577012e-09
5.6086952319630195e-09
5.283528768641005e-09
6.568700102932914e-09
7.177646924873961e-09
5.647286704788341e-09
4.584717523533898e-09
5.2593130603272456e-09
5.608017434891436e-09
4.830361791729095e-09
4.21648084671343e-09
4.231805136585619e-09
4.209402282504005e-09
3.981394837851188e-09
3.958255139497305e-09
4.382216974994449e-09
5.282424224576304e-09
6.0976475749081945e-09
6.2316237804672e-09
6.77298540875866e-09
8.701543933369314e-09
1.0351333722129237e-08
1.0688417624596993e-08
1.155432125418767e-08
1.3457082556302074e-08
1.4444507138577538e-08
1.4150938131857547e-08
1.382313880388494e-08
1.3568746670167903e-08
1.3018948445421681e-08
1.234339969660309e-08
1.1301367668613913e-08
9.622674054040445e-09
8.0325407296457e-09
7.1821954082805515e-09
6.5531528638817714e-09
5.471922431456488e-09
4.20367085667478e-09
3.417788054228983e-09
3.244792143547399e-09
3.2345390879148623e-09
2.9722818641786026e-09
2.5933769445284503e-09
2.6606318326905156e-09
3.363677721208286e-09
4.097250087262939e-09
4.521165668066433e-09
5.591301639639531e-09
8.182123761159858e-09
1.1425570979199389e-08
1.4405284097885622e-08
1.827915513151693e-08
2.4387216097741456e-08
3.1854338394026185e-08
3.889832792986841e-08
4.476015301103497e-08
4.9902032765103007e-08
5.557568989960532e-08
6.159575692925821e-08
6.46512965453435e-08
6.265578385612879e-08
5.8646643490115185e-08
5.514485298894626e-08
4.944723431671311e-08
4.0293281224914256e-08
3.212539905868084e-08
2.7563310816417626e-08
2.3858858174490458e-08
2.0020104725210346e-08
1.8825836327994183e-08
2.0436338097009585e-08
2.163363406522557e-08
2.115243103911671e-08
2.005668885744834e-08
1.8159726775717723e-08
1.411828378998452e-08
8.197686500238633e-09
2.7775306459519036e-09
2.943927716803542e-10
2.1331298167071955e-09
1.0396662640957772e-08
2.8307140291444147e-08
5.579680204609191e-08
8.784531925367404e-08
1.2110651651993581e-07
1.5701012745607347e-07
1.9357044000229608e-07
2.215917029905865e-07
2.349734250236973e-07
2.3700365204468004e-07
2.3136743929023638e-07
2.1554308209348562e-07
1.878378774151927e-07
1.5322734395868094e-07
1.1855424025733248e-07
8.747909195059175e-08
6.128661168250963e-08
4.030907882412036e-08
2.4470417673008447e-08
1.4094883654338155e-08
8.786415822297602e-09
6.858334216801841e-09
9.303444796902803e-09
2.09156541048913e-08
4.282395417542462e-08
6.936972059479642e-08
9.792662242794212e-08
1.3391160031877457e-07
1.7809603391717302e-07
2.1687667727813924e-07
2.3467911884572657e-07
2.300524124719486e-07
2.113651630318712e-07
1.8286223043956005e-07
1.4375564050710192e-07
9.704454474213387e-08
5.1785446113813905e-08
1.8180721229807992e-08
3.645752407412637e-09
1.0559547415528732e-08
3.5171620090230486e-08
7.077974246869796e-08
1.1177225110596742e-07
1.5128694678333974e-07
1.7754802908785714e-07
1.8012000950321752e-07
1.607283792832954e-07
1.3182643584080804e-07
1.0338960150270152e-07
7.663812050039923e-08
5.109118847649511e-08
3.057068362330365e-08
1.8974177706614974e-08
1.5221813064742297e-08
1.6009634272878978e-08
2.036961942151043e-08
2.884465032218886e-08
4.080911296030625e-08
5.512760203076495e-08
7.1370941025312e-08
8.843543502091548e-08
1.0357568081765028e-07
1.1369191564147886e-07
1.1547773232602043e-07
1.0519550820849558e-07
8.23272461045096e-08
5.264677365421025e-08
2.5077958405644675e-08
7.334651498246411e-09
1.825766404428257e-09
3.944298805307878e-09
8.578806526736395e-09
1.4900909191782855e-08
2.3268448672386964e-08
3.167993456083267e-08
3.769762801531609e-08
4.124390993187919e-08
4.219737516336762e-08
3.9362412504358513e-08
3.3750964403119514e-08
2.8642860232465753e-08
2.5577474202075674e-08
2.2750717118134923e-08
1.7669246046756788e-08
1.0745131778277152e-08
4.504565855858966e-09
8.258555435881578e-10
7.952332005935127e-10
3.9743496273982935e-09
8.172958388655099e-09
1.1450957134029996e-08
1.2796181653627372e-08
1.200072404157023e-08
1.0161196318153819e-08
8.7403830365924e-09
8.177283330957433e-09
7.98403736113097e-09
7.489669317882263e-09
6.076208866014299e-09
3.816072654693138e-09
1.9507029999606146e-09
1.1574199969952663e-09
9.602889272972866e-10
8.550792395223887e-10
7.642478375008755e-10
7.668812355819182e-10
8.977623145004502e-10
1.293957022723049e-09
2.132887871044261e-09
3.0184197749868424e-09
3.148689384911245e-09
2.4135086017648372e-09
1.5517885773748004e-09
9.699011538241243e-10
5.044688156643929e-10
1.38116947727037e-10
2.351406590912595e-11
3.8254747319228627e-10
2.4666451094735995e-09
4.846732137946988e-09
1.3594906265632268e-09
1.5644466892312707e-09
2.1015569619252235e-08
7.07212415756749e-08
1.1347482359653286e-07
1.0497086038690104e-07
5.387353614398083e-08
1.4663310758166044e-08
4.936382295243648e-08
1.7555685502966613e-07
2.993305206523945e-07
3.157437680487393e-07
2.1827165256437362e-07
8.85035227766168e-08
6.749300787825115e-08
1.893324833497916e-07
3.322073714677639e-07
3.929521375345501e-07
3.184533565939426e-07
1.6880031105916514e-07
1.0795948375670506e-07
1.4566629617615044e-07
2.44067740904921e-07
3.0621842197934673e-07
2.680642372564588e-07
2.0966630439696968e-07
1.3809251043117435e-07
1.0826249028815988e-07
1.4365991963705618e-07
1.9147994785405753e-07
2.3523180946446077e-07
2.284023384463665e-07
1.7271767406986887e-07
1.298961357927416e-07
1.3021936301176754e-07
1.939826970755187e-07
2.9433626862614056e-07
3.455409118179157e-07
3.561779091231314e-07
3.228180297721872e-07
2.64927465665809e-07
2.5117708527428776e-07
2.873755372108913e-07
4.1562818690714784e-07
5.432610593891801e-07
6.457763266765512e-07
6.410472295934215e-07
5.169636748765441e-07
3.7234625357272867e-07
3.1021081572438767e-07
3.9741814942686133e-07
5.743655785350747e-07
7.049218191290566e-07
6.993115814578874e-07
5.798694068710619e-07
4.375658252886704e-07
3.883463420192205e-07
4.215997858786212e-07
4.930198659548293e-07
5.187929056901615e-07
5.137893090765514e-07
4.815437261981453e-07
4.781877928431306e-07
5.020918417086063e-07
5.31813441306183e-07
5.255161632697518e-07
4.755837371000884e-07
3.938338105226077e-07
3.355695595106008e-07
3.4285629226316735e-07
3.874689456792603e-07
4.107378961284014e-07
4.1193809380250457e-07
3.7623602161819816e-07
3.326920209132756e-07
3.0328205658632213e-07
2.782942759857657e-07
2.467454349288529e-07
1.830937248477212e-07
1.200642619875655e-07
8.481902807745344e-08
1.105677397989706e-07
1.8471555992148424e-07
2.445437053759446e-07
2.4100720670323115e-07
1.7622489318253135e-07
1.0341907462875144e-07
4.360924239697342e-08
2.1529322810920525e-08
2.7870861574042914e-08
4.641383237948858e-08
6.302461731211773e-08
6.62399786468792e-08
6.295013380094908e-08
4.964536571019864e-08
4.7938097460401936e-08
4.928866267267052e-08
4.267957954660642e-08
2.2333101569919403e-08
6.954311666074009e-09
7.898508413573972e-09
1.8081968671812528e-08
2.396591939836064e-08
2.0200737745234717e-08
2.012488806990386e-08
2.6971662840620884e-08
3.4974245917393884e-08
2.711697222721783e-08
1.6216866252201197e-08
1.2161043729232418e-08
1.0399382388756472e-08
2.7935978192389105e-09
1.1974303763915107e-09
9.886012909900309e-09
1.3656661101116425e-08
1.0736647962719404e-08
4.225222794996614e-09
7.120141387766604e-28
6.424991769213067e-29
5.756348358270818e-30
1.2211247620587567e-30
4.79118486941527e-13
1.5061938833744853e-12
4.033333149131487e-12
7.229315500136534e-12
1.4677643267631458e-11
2.280732987726634e-11
3.8042195674413665e-11
4.406871996395247e-11
5.7326537127704714e-11