# vtk DataFile Version 4.1 
COMMENT
ASCII
DATASET STRUCTURED_POINTS 
DIMENSIONS 400 400 1 
ORIGIN 0 0 0
SPACING 0.002506265664160401 0.002506265664160401 0 
POINT_DATA 160000
SCALARS U double 1
LOOKUP_TABLE default
3.427895025811099e-07
5.6716134828897245e-12
1.2738486843657221e-11
5.7045294323933586e-11
7.039143439703908e-11
1.1777726048665328e-10
2.488791987267217e-10
1.3558046517558564e-10
5.180669722737465e-10
3.6459098313482453e-10
4.885325010038753e-10
1.0776871773678593e-09
6.621620262322277e-10
1.038497117835557e-09
2.0400921102651323e-09
1.5536533468760192e-09
1.6514325488249392e-09
3.5455047308862806e-09
4.150240476703334e-09
3.2918115973674387e-09
4.7517551927942815e-09
8.544434415760924e-09
1.0464299038906362e-08
9.881440695434817e-09
1.1656048642611985e-08
1.9062179052106353e-08
2.8901425984845315e-08
3.5672579943528766e-08
3.893651381927841e-08
4.497887969109944e-08
6.148507438008822e-08
9.108333201902364e-08
1.2940677253657608e-07
1.6830056457227108e-07
2.0080219072102518e-07
2.2430567366488526e-07
2.4062712197876816e-07
2.5395689951497746e-07
2.684753599041695e-07
2.86875483436289e-07
3.1007024652954484e-07
3.3769009591564905e-07
3.688076900153358e-07
4.025004545239315e-07
4.3812155141631815e-07
4.753317321756078e-07
5.140085164230176e-07
5.541315096444447e-07
5.956961086930375e-07
6.386677726937905e-07
6.82967700415572e-07
7.284754513299681e-07
7.750371921665098e-07
8.224735041886161e-07
8.705847911117066e-07
9.191545033750031e-07
9.67951084896518e-07
1.016729465853207e-06
1.0652326084739193e-06
1.113193336503862e-06
1.16033649556228e-06
1.206381370046238e-06
1.2510443052403431e-06
1.2940416494765067e-06
1.3350928712578813e-06
1.3739230866853009e-06
1.4102655790803555e-06
1.443866991512734e-06
1.4744916560421802e-06
1.5019155162525676e-06
1.525926450979886e-06
1.5463604334948158e-06
1.5631007770824234e-06
1.5759627178754594e-06
1.5847456382010683e-06
1.5896053161110196e-06
1.590760452367379e-06
1.5874445125364757e-06
1.5791717949402619e-06
1.5683148501538538e-06
1.5556103244998068e-06
1.5349230123214187e-06
1.5067793752795952e-06
1.486076179313629e-06
1.4674585829777653e-06
1.421519478145365e-06
1.3687953700037738e-06
1.3587779560704125e-06
1.342191772088036e-06
1.2548808581800026e-06
1.1846432491570625e-06
1.1940800849599237e-06
1.1765908905177737e-06
1.086527492277303e-06
9.956085947880355e-07
9.532164148027633e-07
9.726678343889052e-07
9.609982555077167e-07
8.395907844258349e-07
7.192944706301572e-07
6.970916636433123e-07
7.562060186928601e-07
7.688133133193251e-07
6.316309617092379e-07
4.710718149158803e-07
4.374079237286576e-07
5.457882746742083e-07
6.122771869154066e-07
4.946947256124363e-07
2.951330505865159e-07
2.2281777054142382e-07
3.468226880620611e-07
4.7121603224504887e-07
4.0532381292641904e-07
1.9303875369127906e-07
8.52617025738035e-08
1.979452398406485e-07
3.6656510560456316e-07
3.5231142805053896e-07
1.5391185574893638e-07
4.316339873723587e-26
3.936620286068337e-27
3.4471347059199753e-28
3.08495922074006e-29
1.2362117155759567e-11
1.1329499134246112e-11
1.6668590798886747e-11
6.763632149399594e-12
8.270108104924127e-12
3.796960408869642e-12
1.5235512713968778e-12
2.6720348219217284e-12
4.278461762272743e-12
2.4398197530652707e-11
1.4034842763608563e-11
2.4791416248349103e-11
6.500386553670016e-11
4.613984755185218e-11
3.620671129117125e-11
9.398235698318283e-11
1.067112831936444e-10
5.880096145612152e-11
7.817806265408605e-11
1.6058171274050246e-10
1.7441914294362747e-10
1.1476786477899751e-10
1.1550562801323597e-10
2.2681109712336468e-10
3.3938870112535555e-10
3.428730183870356e-10
2.6825886666105686e-10
2.4503115192831324e-10
3.5982840110460065e-10
5.807136347174314e-10
7.972581839954561e-10
9.09310240579059e-10
8.833962941233982e-10
7.50989803654636e-10
5.724871763834884e-10
4.014067293689239e-10
2.671647476914567e-10
1.7588351816199287e-10
1.1987876087005334e-10
8.728143797495146e-11
6.785812928062946e-11
5.494935418426476e-11
4.508833861831153e-11
3.6843634382740175e-11
2.977458463524231e-11
2.378360855321305e-11
1.8819901062227105e-11
1.4792933046246855e-11
1.1575882923066442e-11
9.030863192926873e-12
7.0288305054864975e-12
5.459030154702087e-12
4.2308144309556014e-12
3.271691315428045e-12
2.52421123349994e-12
1.9429489764106848e-12
1.4919918591805818e-12
1.1429582233647655e-12
8.734491986278551e-13
6.658288167849235e-13
5.062518133156995e-13
3.8388287988934567e-13
2.9026809650972953e-13
2.1882969309136563e-13
1.6446165556571578e-13
1.232078819825694e-13
9.200766004331943e-14
6.849568288806647e-14
5.0845872748419564e-14
3.7650050545897237e-14
2.782403197833432e-14
2.0535081632595094e-14
1.5145836577779267e-14
1.117083106923014e-14
8.24262100964741e-15
6.085226307653814e-15
4.4931888247224915e-15
3.3149943225470645e-15
2.4399436533624586e-15
1.7877993686355583e-15
1.3006985666116681e-15
9.369306951927334e-16
6.6624806870882095e-16
4.664220980963687e-16
3.2079119540019975e-16
2.1657482685035646e-16
1.4375669406855547e-16
9.437019423225283e-17
6.205085300984374e-17
4.175189912962452e-17
2.954870133724747e-17
2.2483706262811054e-17
1.842458913329088e-17
1.592400703596403e-17
1.4079727306426678e-17
1.2399621601823068e-17
1.0678043497939516e-17
8.889563203849491e-18
7.104005293769133e-18
5.4241510034973794e-18
3.945016007647758e-18
2.7317291871425915e-18
1.8119102799680307e-18
1.1780761749308437e-18
7.95869120690915e-19
6.145996794802963e-19
5.775223443817571e-19
6.302255606270731e-19
7.2638016666683945e-19
8.307655680232621e-19
9.199477124835224e-19
9.812251566439435e-19
1.0105250796217787e-18
1.0098698971094581e-18
9.848992866765157e-19
9.427678657969983e-19
8.905803154713172e-19
8.343955850926093e-19
7.7874028948745445e-19
7.265194146836009e-19
6.791944917509483e-19
6.37106615656439e-19
5.998443739192941e-19
5.665861608466638e-19
5.363757310912625e-19
5.083147902583344e-19
4.816747508349526e-19
4.559411027633537e-19
4.308089798662115e-19
4.0614892290490685e-19
3.81959215269693e-19
3.5831702753476492e-19
3.3533615390620703e-19
3.13135161994396e-19
2.9181673537332264e-19
2.7145698946257597e-19
2.521024985013799e-19
2.337724805609375e-19
2.1646380395449316e-19
2.0015697134294806e-19
1.8482182206472984e-19
1.704222411301671e-19
1.56919603022115e-19
1.4427498362996417e-19
1.3245034989326623e-19
1.2140900803971556e-19
1.1111558888250228e-19
1.0153580296685815e-19
9.263613450006798e-20
8.43835787475456e-20
7.674547346867996e-20
6.968943553612511e-20
6.318338939072607e-20
5.71956621385485e-20
5.1695117486567816e-20
4.665130385409404e-20
4.203459792673842e-20
3.7816331478181623e-20
3.396889513061725e-20
3.0465817211573014e-20
2.7281818846622636e-20
2.43928480743064e-20
2.1776096396452496e-20
1.941000112900083e-20
1.7274236501192747e-20
1.534969589462555e-20
1.3618467066846134e-20
1.2063801747611724e-20
1.0670080656679689e-20
9.42277476430932e-21
8.308403477224256e-21
7.314490355568792e-21
6.429516924611458e-21
5.642875118925209e-21
4.944818873097793e-21
4.3264153445820225e-21
3.779496218631377e-21
3.296609502598199e-21
2.8709721692217484e-21
2.49642395849709e-21
2.1673825975172604e-21
1.878800649255819e-21
1.6261241560003452e-21
1.4052532017744677e-21
1.2125044809145153e-21
1.0445759271483326e-21
8.985134288073594e-22
7.716796309794187e-22
6.617248041933034e-22
5.665597413077891e-22
4.843306293471872e-22
4.1339583085334976e-22
3.5230449961871344e-22
2.9977694819667097e-22
2.5468667913292962e-22
2.1604398819383165e-22
1.8298104577557159e-22
1.547383619634953e-22
1.3065254117564181e-22
1.101452337872194e-22
9.271319442888896e-23
7.791935962066057e-23
6.538486090251121e-23
5.478189352965592e-23
4.58273649951553e-23
3.8277252028768245e-23
3.192159921146168e-23
2.658009686503306e-23
2.2098180363628966e-23
1.8343597417236148e-23
1.5203394153681186e-23
1.258127494230825e-23
1.0395294834248136e-23
8.575847221868739e-24
7.063912831317703e-24
5.809539449971174e-24
4.770524852235255e-24
3.9112782226564936e-24
3.2018379879197733e-24
2.6170263654404472e-24
2.135723127858544e-24
1.740243080934846e-24
1.4158035568062846e-24
1.1500698341367824e-24
9.327678470772187e-25
7.553549028174601e-25
6.107403726362893e-25
4.930492866986565e-25
3.974224325616079e-25
3.1984741222098293e-25
2.5701651949201338e-25
2.0620826044463107e-25
1.6518840624990817e-25
1.321253333630728e-25
1.0551737298040177e-25
8.41351525251818e-26
6.697915806759162e-26
5.324156387252046e-26
4.226281973177258e-26
3.3495801108556756e-26
2.649622906706993e-26
2.0922141409327555e-26
1.6505778362365063e-26
1.301196317653537e-26
1.0235420476502849e-26
8.027145274105775e-27
6.2859127325124145e-27
4.921102301232501e-27
3.848401991505425e-27
3.0061060491159324e-27
2.3460137166965044e-27
1.824543604798248e-27
1.4131676554870507e-27
1.0932550539391015e-27
8.447313581596325e-28
6.52700352436992e-28
5.062320794624662e-28
3.9268667945281912e-28
3.040485724206313e-28
2.3474306492846e-28
1.791813420128626e-28
1.3545132499335836e-28
1.0137057536392876e-28
7.534282796791181e-29
5.663786521045256e-29
4.3413490095554863e-29
3.4657209486879025e-29
2.8613264414930086e-29
2.407961174493565e-29
1.997112751022148e-29
1.5696753218041314e-29
1.1220738102406151e-29
6.832362938038022e-30
3.163486191565894e-30
7.894311658114305e-31
1.9378110236178687e-31
5.425337116819548e-12
3.5804286710786304e-11
8.041669916115301e-11
3.601208156439211e-10
4.4437356437254535e-10
7.435151946085266e-10
1.5711476486268096e-09
8.559049135088656e-10
3.27050114868324e-09
2.3016237146110393e-09
3.0840532039514407e-09
6.803323392791765e-09
4.180157746598481e-09
6.555920756497795e-09
1.2878882359086536e-08
9.80804669580184e-09
1.0425316294919024e-08
2.2382390531736775e-08
2.6200022338420298e-08
2.0780853029847914e-08
2.9997320130424337e-08
5.3940096680837615e-08
6.605999582776815e-08
6.238047371216793e-08
7.358338306620909e-08
1.2033748882447087e-07
1.82451597844911e-07
2.2519716547411668e-07
2.458020294418294e-07
2.8394683616020306e-07
3.881486702470172e-07
5.749992914752143e-07
8.169310550154718e-07
1.0624633864264266e-06
1.2676426611967285e-06
1.4160176244347518e-06
1.5190531744997392e-06
1.6032026282904918e-06
1.6948561092517812e-06
1.811014112692141e-06
1.957440160673916e-06
2.1318013031093403e-06
2.328243332217325e-06
2.5409421355092105e-06
2.7658142940114297e-06
3.0007181682766746e-06
3.244880552829707e-06
3.498172699293638e-06
3.760565548496834e-06
4.031841047605531e-06
4.311501732911899e-06
4.598787276296973e-06
4.892726544848021e-06
5.192186887352965e-06
5.495908273906544e-06
5.8025236503918645e-06
6.1105712281355446e-06
6.418503907668463e-06
6.724699037150612e-06
7.027469961583775e-06
7.325079660917483e-06
7.615756007702986e-06
7.897708320190307e-06
8.169145935866752e-06
8.428297889525543e-06
8.673428868637426e-06
8.902855119460522e-06
9.114977226907677e-06
9.308307444585923e-06
9.481431328406888e-06
9.633009780246814e-06
9.76200731698216e-06
9.867687307915248e-06
9.948883358598236e-06
1.0004328991211385e-05
1.0035007615862888e-05
1.0042299866972292e-05
1.0021366694995828e-05
9.969141917410793e-06
9.900603191154417e-06
9.820400885335393e-06
9.689804105645608e-06
9.512136348001384e-06
9.381439295666757e-06
9.263908409775829e-06
8.973899775439542e-06
8.641058144011896e-06
8.577819285854033e-06
8.473112487949977e-06
7.921928066801581e-06
7.478525585492832e-06
7.538099316274656e-06
7.427691910333379e-06
6.8591313512477216e-06
6.285170117296403e-06
6.017552838533146e-06
6.140347561039379e-06
6.06667876303036e-06
5.300246438867043e-06
4.540828731298462e-06
4.400664795667183e-06
4.773847369427276e-06
4.853435866213084e-06
3.987418415707112e-06
2.973825768187768e-06
2.7613092390723314e-06
3.4455027531009007e-06
3.865240114286391e-06
3.1229546660004317e-06
1.8631432471390204e-06
1.4066246518369183e-06
2.189454376367819e-06
2.974736196695949e-06
2.558765693837882e-06
1.218632917124299e-06
5.382479701079452e-07
1.2496070371634207e-06
2.3140861377154997e-06
2.2241042023514274e-06
9.716290131633512e-07
2.72485899905255e-25
2.4851461020590303e-26
2.1761391130373075e-27
1.947501619489478e-28
7.804071774856373e-11
7.152191109565427e-11
1.0522702328509846e-10
4.269808325513906e-11
5.220830414681808e-11
2.3969803217162626e-11
9.61801552666515e-12
1.6868268818725238e-11
2.7009469541549098e-11
1.5402320032020287e-10
8.860045483794398e-11
1.565055478481018e-10
4.1036242085375306e-10
2.912759015617509e-10
2.2856907929897527e-10
5.933005246801253e-10
6.736568685908534e-10
3.712041536674305e-10
4.935297121718785e-10
1.013735103919786e-09
1.101089314468131e-09
7.245172027552068e-10
7.291746228073737e-10
1.4318340936123416e-09
2.142524415345435e-09
2.16452053595642e-09
1.6934894106622643e-09
1.5468553425198462e-09
2.2715580458188693e-09
3.665982799605739e-09
5.033005279434191e-09
5.74037787676578e-09
5.57678591629359e-09
4.740917964181817e-09
3.6140500517745596e-09
2.5340375660862696e-09
1.6865823551301023e-09
1.110333757928303e-09
7.56781740799849e-10
5.509983427489561e-10
4.283810812833027e-10
3.4688937067403005e-10
2.8463783861034883e-10
2.3258990636204148e-10
1.8796375461601882e-10
1.5014336612065394e-10
1.188080138982405e-10
9.338619736326377e-11
7.307730548958222e-11
5.701086930216815e-11
4.437225199128625e-11
3.4462270994213654e-11
2.6708677056900888e-11
2.0653835851150305e-11
1.5935074383237306e-11
1.2265628189527582e-11
9.418784347244157e-12
7.215372495192063e-12
5.513990970880535e-12
4.203305801495591e-12
3.1959133192862537e-12
2.423411386616121e-12
1.832431314613019e-12
1.3814483472672438e-12
1.0382287662179115e-12
7.777981247912919e-13
5.808344750074742e-13
4.324058887253186e-13
3.209845331380044e-13
2.3768072498023417e-13
1.7565012520824813e-13
1.2963576460577575e-13
9.561403945129646e-14
7.052025664426827e-14
5.2034781066815664e-14
3.8415380046005315e-14
2.83650184222529e-14
2.0927203083773968e-14
1.5403102201287894e-14
1.1286185380773919e-14
8.211170338699619e-15
5.914742839937845e-15
4.205952493857926e-15
2.944472605347599e-15
2.0251203593219086e-15
1.3672136188903675e-15
9.075205682744915e-16
5.957488995746272e-16
3.917203699645163e-16
2.635752544962294e-16
1.8653777761864687e-16
1.4193722258813534e-16
1.1631245215262321e-16
1.0052654596796328e-16
8.888380613555807e-17
7.827747928808645e-17
6.740934163864769e-17
5.611885764862016e-17
4.484682235494276e-17
3.424208265914291e-17
2.490446230910904e-17
1.724511293439604e-17
1.1438394974183367e-17
7.4370683512938e-18
5.0242362719964914e-18
3.879901760381957e-18
3.645836526503641e-18
3.978546269634166e-18
4.585559969280073e-18
5.244533795663179e-18
5.807531094292741e-18
6.194369017265249e-18
6.379336283823027e-18
6.375200186998062e-18
6.217563405510459e-18
5.951592270972838e-18
5.622137871403592e-18
5.26744970350987e-18
4.916103800473256e-18
4.586439027052799e-18
4.287681871904908e-18
4.0219856309177535e-18
3.7867531012913514e-18
3.576797574538114e-18
3.386082376494092e-18
3.2089366711339535e-18
3.0407609637485783e-18
2.878307207608526e-18
2.719650815283019e-18
2.563974524504294e-18
2.4112674984994102e-18
2.2620169068141124e-18
2.1169411200484033e-18
1.9767886427908508e-18
1.8422077054144793e-18
1.713678816387343e-18
1.5914959938789757e-18
1.4757805595086002e-18
1.3665127432741174e-18
1.2635694605680676e-18
1.1667603103736012e-18
1.0758573026401523e-18
9.906165986268801e-19
9.107924746044747e-19
8.361448319475817e-19
7.664420268130343e-19
7.014607773236236e-19
6.409846178345401e-19
5.848019667464152e-19
5.327044687149531e-19
4.844859305235358e-19
4.399419209676064e-19
3.988699504875612e-19
3.610700715060826e-19
3.263457239497581e-19
2.9450467026059665e-19
2.6535990163679985e-19
2.387304386449625e-19
2.1444198624860706e-19
1.9232743162282544e-19
1.7222719194865173e-19
1.5398942977689137e-19
1.3747015750852167e-19
1.2253325223519004e-19
1.090503995493553e-19
9.690098142134599e-20
8.597191978856864e-20
7.615748461996759e-20
6.735907307708939e-20
5.948496495579199e-20
5.245005871871664e-20
4.6175591941189807e-20
4.0588849729469045e-20
3.5622864505960695e-20
3.1216110406574225e-20
2.7312195355815274e-20
2.3859553660074685e-20
2.081114169021088e-20
1.812413892371414e-20
1.5759656300867103e-20
1.3682453532418466e-20
1.1860666690582151e-20
1.026554712947525e-20
8.871212519924422e-21
7.654410548910902e-21
6.594295626744405e-21
5.672218763772173e-21
4.871530621720628e-21
4.177397610830212e-21
3.576630790827007e-21
3.0575272395196505e-21
2.6097234759685475e-21
2.2240604639055188e-21
1.892459673935582e-21
1.60780964863059e-21
1.3638624914708563e-21
1.1551396873839928e-21
9.76846658118105e-22
8.247954586217783e-22
6.9533502983614175e-22
5.852884377998008e-22
4.918965477100089e-22
4.1276760367415023e-22
3.458322095489853e-22
2.893032327461047e-22
2.416401805718205e-22
2.0151762701778e-22
1.6779729645314752e-22
1.3950343899720628e-22
1.1580116014875698e-22
9.597739424551635e-23
7.942423731458541e-23
6.562437969572985e-23
5.413840235164324e-23
4.459372294595041e-23
3.6674998525888794e-23
3.011581097436421e-23
2.4691479296345865e-23
2.0212859297766715e-23
1.652100634159851e-23
1.3482590701110973e-23
1.0985967644696919e-23
8.937815777991877e-24
7.260267330114253e-24
5.888463226929839e-24
4.768474366327039e-24
3.8555383708166086e-24
3.1125671868797553e-24
2.5088851283081355e-24
2.019162357486375e-24
1.622517680561654e-24
1.3017705986780864e-24
1.0428166652245316e-24
8.34093037503567e-25
6.661198416564833e-25
5.311361806574498e-25
4.228322304285899e-25
3.3610827387537415e-25
2.6680064137792437e-25
2.114553945039273e-25
1.672678480531229e-25
1.3207923140092154e-25
1.0419920586155749e-25
8.214312587561859e-26
6.461511004791549e-26
5.0674505893300226e-26
3.9682291889747346e-26
3.106639023586378e-26
2.4294548402832394e-26
1.8977224592310703e-26
1.4810132600439805e-26
1.1518147796849472e-26
8.921175616094396e-27
6.901601725389087e-27
5.3326983286825375e-27
4.120427216238726e-27
3.1957887415904686e-27
2.4789888276152013e-27
1.9194259788322066e-27
1.4819077543671045e-27
1.1311525656687156e-27
8.550896654098376e-28
6.399415537248882e-28
4.756311801399625e-28
3.575487594138193e-28
2.740646997871858e-28
2.1878724084557407e-28
1.8063246480642002e-28
1.5201200247532033e-28
1.2607558280740206e-28
9.909191702549874e-29
7.083531438402945e-29
4.313197334121296e-29
1.9970748526877517e-29
4.983594154364257e-30
7.232961012699391e-31
2.2682070075000013e-11
1.505323194146105e-10
2.6716639073056485e-10
1.4989714542034404e-09
1.5322737465592821e-09
3.146592814550269e-09
5.8337993695291834e-09
3.352191226291738e-09
1.3097153888775314e-08
8.04985311781615e-09
1.2811654004627629e-08
2.6540302838124588e-08
1.4857385062322974e-08
2.7036506247151727e-08
5.078146293730463e-08
3.577109617636912e-08
4.1733336696257855e-08
9.083913756182484e-08
1.0066346144595058e-07
7.806684307837112e-08
1.2159419968304152e-07
2.188735572876638e-07
2.5907384721392556e-07
2.393362425354522e-07
2.9243091355599805e-07
4.920315713555614e-07
7.411895829091554e-07
8.989374779144214e-07
9.698750484438441e-07
1.1303245312912537e-06
1.5775253283850382e-06
2.3646870721079235e-06
3.363036792364016e-06
4.3552313473343744e-06
5.1660389686661635e-06
5.73885839557272e-06
6.13047851588458e-06
6.4540232529472476e-06
6.817102412626466e-06
7.2858351236633685e-06
7.879853617219473e-06
8.586781909725671e-06
9.381393652359714e-06
1.0239790214995626e-05
1.1145795078207638e-05
1.2091283009608053e-05
1.3073575862707219e-05
1.4092421185397596e-05
1.5147811296097122e-05
1.623887825497642e-05
1.7363585226845892e-05
1.851882881234272e-05
1.9700664856946137e-05
2.0904510559377848e-05
2.2125279989602842e-05
2.3357462898730076e-05
2.4595171778767677e-05
2.5832178493585546e-05
2.7061953094557457e-05
2.8277710289143817e-05
2.9472464504207246e-05
3.063909151975331e-05
3.17703951556952e-05
3.2859181863525946e-05
3.38983402011946e-05
3.4880905753746214e-05
3.580012356559069e-05
3.664957728172857e-05
3.742330554904821e-05
3.8115655012379605e-05
3.8721260834441906e-05
3.923594724921628e-05
3.965681162887791e-05
3.9979313871830366e-05
4.0198248066957394e-05
4.0317266925176034e-05
4.0342513131563445e-05
4.0255342208310246e-05
4.0041563021704865e-05
3.9759985415227366e-05
3.9434881415535464e-05
3.891203821285231e-05
3.8190883761113903e-05
3.765173852085196e-05
3.718811329937961e-05
3.603695626759996e-05
3.4670179481568535e-05
3.4394900721371366e-05
3.401948040598641e-05
3.181263640228673e-05
2.997008115894719e-05
3.021895068078323e-05
2.9818189331022656e-05
2.7512234703037475e-05
2.5204995937956635e-05
2.4125781132504905e-05
2.459091743583319e-05
2.433271524034709e-05
2.1264985710501353e-05
1.8198432152965767e-05
1.7636944883549572e-05
1.9102555531164687e-05
1.9446203319839528e-05
1.598892410212242e-05
1.1921563031370456e-05
1.1065302657586488e-05
1.3777337479221982e-05
1.5475861906880204e-05
1.24999175821306e-05
7.471768364295767e-06
5.630186901375264e-06
8.763367116992612e-06
1.1896675831826347e-05
1.0243775358410303e-05
4.878436108543512e-06
2.155556699352601e-06
4.993927580675661e-06
9.255830147922408e-06
8.894732947491506e-06
3.8870171234693975e-06
8.246919743376187e-25
7.52116645351841e-26
6.58867170172443e-27
5.8929542858105455e-28
3.079453413407124e-10
2.8660590901018806e-10
4.1649019653210907e-10
1.550660525342599e-10
2.1685628893019977e-10
8.425710482106972e-11
4.5151521887533396e-11
5.325495945041372e-11
1.3358402705804543e-10
6.16070309366919e-10
3.01347299350052e-10
6.776933731526666e-10
1.6494682298867855e-09
1.0503800958832183e-09
9.262324029117445e-10
2.4541209651367795e-09
2.5875181133458925e-09
1.3420464382351696e-09
2.0469912051408433e-09
4.165450101107827e-09
4.279587896300889e-09
2.6773176220287607e-09
2.9331601532636038e-09
5.992457375609671e-09
8.758141050763343e-09
8.539868913592773e-09
6.495386878447292e-09
6.115660034386907e-09
9.47149886985945e-09
1.546333314407995e-08
2.1087966660515653e-08
2.3795187663722404e-08
2.285993404136311e-08
1.9223476669002923e-08
1.4503532634975748e-08
1.0073828185866365e-08
6.653800365056521e-09
4.361291214926617e-09
2.972770385858178e-09
2.1725345765514988e-09
1.697114151119218e-09
1.3791277314312882e-09
1.133611052677398e-09
9.267050360358716e-10
7.486812187410369e-10
5.977151186071234e-10
4.727195562139793e-10
3.7141515800698394e-10
2.905582335847566e-10
2.266334528883227e-10
1.7636768383926124e-10
1.3696351740387586e-10
1.0613804417103411e-10
8.206871805966971e-11
6.331239353699891e-11
4.8728350469866525e-11
3.7414834037290015e-11
2.865922168542694e-11
2.189915019089837e-11
1.6691889853025552e-11
1.2689925778276918e-11
9.62133896596858e-12
7.274007708012142e-12
5.482908825344727e-12
4.119955542916438e-12
3.0859125031317276e-12
2.3040047033332113e-12
1.7148983208624268e-12
1.2727829527184132e-12
9.423293431497517e-13
6.963356042124629e-13
5.139090812895326e-13
3.7906086156150174e-13
2.796157308826218e-13
2.06362303044058e-13
1.523862087687776e-13
1.1254383028141325e-13
8.304538653347883e-14
6.112460017958825e-14
4.4778174919862625e-14
3.2562385907414445e-14
2.3436737857760168e-14
1.6646332257856275e-14
1.1635688829551736e-14
7.987577459393915e-15
5.381130251526552e-15
3.564227433818559e-15
2.3359235569078404e-15
1.5354903784504377e-15
1.0354604846383376e-15
7.368120654128923e-16
5.650960296515825e-16
4.668410964992055e-16
4.0596723636038863e-16
3.6019634963895905e-16
3.175883710540394e-16
2.7337670873057974e-16
2.2725816093161875e-16
1.812372238930068e-16
1.380566745822962e-16
1.0018292523996004e-16
6.926662510277163e-17
4.5970911783456556e-17
3.0051318931723883e-17
2.0579107703131924e-17
1.6218534733866637e-17
1.5492825976399874e-17
1.699859660956339e-17
1.9550585117537318e-17
2.2255729700493598e-17
2.452701996101041e-17
2.6053478249939986e-17
2.6744034718692043e-17
2.66612703182068e-17
2.595736461032243e-17
2.4820278173022186e-17
2.3434106613271525e-17
2.1954218273530598e-17
2.0495479432217845e-17
1.913058737604795e-17
1.7895120820680185e-17
1.679614400990655e-17
1.582181285919086e-17
1.4950203777024666e-17
1.4156346516828118e-17
1.3417081348601801e-17
1.2713825064490344e-17
1.2033612401836287e-17
1.1368902542043256e-17
1.0716643705067332e-17
1.0077016006581477e-17
9.45216307037177e-18
8.845106997802015e-18
8.25893941775338e-18
7.696303967852287e-18
7.159135408074557e-18
6.648595058827557e-18
6.1651359105969536e-18
5.708637166778331e-18
5.278561198539765e-18
4.874101181665804e-18
4.494301833386975e-18
4.1381468967706e-18
3.8046147208057415e-18
3.492707650783502e-18
3.2014626269393897e-18
2.92995021004962e-18
2.677267999686127e-18
2.442532725922596e-18
2.224873628041753e-18
2.0234283462297407e-18
1.8373415525768248e-18
1.665765935958806e-18
1.507864868046292e-18
1.3628160246571138e-18
1.2298153273130663e-18
1.1080807282402384e-18
9.968555333376607e-19
8.954111083246938e-19
8.030489276475787e-19
7.191020008270984e-19
6.429357516171253e-19
5.739484400409945e-19
5.115712150912389e-19
4.552678744758764e-19
4.045343931303438e-19
3.5889826803234885e-19
3.1791771513290893e-19
2.8118074557731923e-19
2.483041426365439e-19
2.189323572941105e-19
1.9273633850165389e-19
1.6941231306305424e-19
1.4868052942954503e-19
1.30283979050489e-19
1.1398710815136079e-19
9.957453184426567e-20
8.684976133002434e-20
7.563395367840474e-20
6.576469234230793e-20
5.709480523258695e-20
4.949122590079989e-20
4.2833902183497035e-20
3.701475557143394e-20
3.1936693588847694e-20
2.7512676603545594e-20
2.3664839732975217e-20
2.0323669857907753e-20
1.7427237196764563e-20
1.4920480421771943e-20
1.2754543905171684e-20
1.08861653631133e-20
9.277111909527644e-21
7.893662335865438e-21
6.7061332892871035e-21
5.688446925718181e-21
4.817737559518704e-21
4.07399481316505e-21
3.4397407830799214e-21
2.899738776784985e-21
2.440731237496805e-21
2.0512045509666007e-21
1.721178522003502e-21
1.4420184114318303e-21
1.206267535145972e-21
1.0074985428273136e-21
8.40181612517496e-22
6.9956791662214505e-22
5.815868334084504e-22
4.82755494306483e-22
4.000993702081224e-22
3.310827086078794e-22
2.7354773718092154e-22
2.256616477553291e-22
1.8587046727395333e-22
1.5285900907671557e-22
1.2551617859344087e-22
1.0290498232729232e-22
8.423665791232345e-23
6.884840621533626e-23
5.618426423699203e-23
4.577871025619083e-23
3.724264025708881e-23
3.025139711653189e-23
2.4534572206549568e-23
1.9867334805672358e-23
1.6063077658661134e-23
1.2967192701328985e-23
1.0451808419226683e-23
8.411342092991466e-24
6.758757334399832e-24
5.42244455526e-24
4.343618258956751e-24
3.47409103261437e-24
2.7743583769038807e-24
2.2120745032910147e-24
1.760938177707733e-24
1.3997022763248387e-24
1.1110320499928045e-24
8.805369828854326e-25
6.965089093973797e-25
5.4994451823976285e-25
4.338300535883244e-25
3.4200041564619443e-25
2.690283872763288e-25
2.1096924407042517e-25
1.651858220033259e-25
1.2931835266583107e-25
1.0113071027807794e-25
7.899033913636805e-26
6.164504701303264e-26
4.794437524672093e-26
3.712885478806908e-26
2.872074598991956e-26
2.219270910622119e-26
1.7145124715764807e-26
1.3297599686352307e-26
1.0316377564600881e-26
7.986327556500333e-27
6.1664178493599724e-27
4.706804244052504e-27
3.557125938603329e-27
2.6625829377470766e-27
1.9782714592174985e-27
1.4872411098098278e-27
1.1399338869420536e-27
9.0986018954041e-28
7.513760087544061e-28
6.321025347077371e-28
5.244258361741804e-28
4.1201163119214125e-28
2.946030739985069e-28
1.7930375832797113e-28
8.302999183573508e-29
2.0704583182664408e-29
3.0303187257239447e-30
4.644087723522382e-11
3.0653853381413624e-10
5.01160873855732e-10
3.043155531582307e-09
2.8962172749889908e-09
6.470696615025642e-09
1.1299042894398864e-08
6.820174874719902e-09
2.6160030606121183e-08
1.535461147380725e-08
2.6268210219480658e-08
5.246347623265946e-08
2.86566912037942e-08
5.521671898662465e-08
1.0091170045496115e-07
6.933678611968205e-08
8.463702673516465e-08
1.8307268089478016e-07
1.9826916506382812e-07
1.5378471073589588e-07
2.466909173467469e-07
4.412680184554206e-07
5.147799323186265e-07
4.734129944379773e-07
5.884886004145234e-07
9.975858513940726e-07
1.4947321737574473e-06
1.7996306729722231e-06
1.93581427212087e-06
2.268365850362931e-06
3.1909217322242302e-06
4.797241156850785e-06
6.815521324459593e-06
8.804331651212289e-06
1.041606688664579e-05
1.1545961624312531e-05
1.2315936944516199e-05
1.2956886104323486e-05
1.368447714112961e-05
1.4628747768224507e-05
1.5826089927034905e-05
1.724954195454159e-05
1.884753966852579e-05
2.0572079187827017e-05
2.239108441350693e-05
2.428869915880105e-05
2.6259874445016892e-05
2.8304267004434332e-05
3.0421901438718174e-05
3.2611009609435795e-05
3.486745570646401e-05
3.718496597057567e-05
3.955559044054421e-05
4.197010857466512e-05
4.4418298303927974e-05
4.688909135707874e-05
4.9370665944429094e-05
5.185051954184303e-05
5.431554670077491e-05
5.675213249227169e-05
5.914626326826394e-05
6.148365059891575e-05
6.374986521401621e-05
6.593048658320556e-05
6.801126251228303e-05
6.997823996987776e-05
7.18178894901148e-05
7.351736184335203e-05
7.50647250365525e-05
7.644867642685834e-05
7.765848693175975e-05
7.868578673897618e-05
7.95247991617447e-05
8.016654720732274e-05
8.060056527965132e-05
8.083394884905627e-05
8.087934570972189e-05
8.070009692546338e-05
8.026669773157935e-05
7.96956237828052e-05
7.903901664834613e-05
7.799011592266774e-05
7.65385753858468e-05
7.544514834942348e-05
7.451710926707464e-05
7.221972608937264e-05
6.94615175205022e-05
6.88879659388001e-05
6.816093252532082e-05
6.374961350632032e-05
6.0015107361261544e-05
6.0510093179915906e-05
5.973529480040674e-05
5.510190103174292e-05
5.047618587560659e-05
4.831187638946773e-05
4.921817640452319e-05
4.872147161251516e-05
4.258760951650595e-05
3.643285777229862e-05
3.5309232677668274e-05
3.82180308168774e-05
3.891669187163799e-05
3.200908550650678e-05
2.386497596562304e-05
2.2150458619873774e-05
2.7553410329556725e-05
3.09607760956089e-05
2.5003916094157768e-05
1.4956338026406356e-05
1.1264468401345501e-05
1.7529447904210955e-05
2.3788543187278455e-05
2.0489018445476524e-05
9.758413026807361e-06
4.312871088477178e-06
9.982736015534937e-06
1.850641238858122e-05
1.778285856123523e-05
7.772003745295169e-06
1.6534277398715413e-24
1.5078980147750122e-25
1.3209910488652442e-26
1.1830781638479607e-27
6.126561541118934e-10
5.751248143696708e-10
8.278316241292139e-10
3.0073763874974646e-10
4.3842079963410334e-10
1.5914582232104714e-10
9.495549712701579e-11