# vtk DataFile Version 4.1 
COMMENT
ASCII
DATASET STRUCTURED_POINTS 
DIMENSIONS 400 400 1 
ORIGIN 0 0 0
SPACING 0.002506265664160401 0.002506265664160401 0 
POINT_DATA 160000
SCALARS U double 1
LOOKUP_TABLE default
1.2039767907533724e-06
2.095211519625528e-09
6.703486843945367e-09
9.99582736553122e-09
1.0035987399219518e-08
7.8822431793793e-09
7.281733912096549e-09
7.65997204930538e-09
1.027768003649178e-08
1.0479639846464268e-08
7.328376973012507e-09
4.240416859123894e-09
1.589880822568095e-09
1.3138342089250494e-09
2.8541239864602074e-09
6.350220079671888e-09
1.0523464148085783e-08
1.1871478719125827e-08
1.105805687282039e-08
7.240483332823303e-09
2.859344543071033e-09
7.22355265061043e-10
1.0842157291852405e-09
3.981410122251749e-09
5.384685000587525e-09
5.667224006930101e-09
2.5591928763427232e-09
1.5732855094692862e-09
3.703464419890823e-09
1.1264752052804263e-08
1.6382219525174616e-08
1.6506004972352935e-08
1.2978304864623975e-08
6.155550185405575e-09
2.8557134036469034e-09
3.152548566561976e-09
5.1331407401810325e-09
5.303988614567227e-09
6.100414716299368e-09
7.742311990287251e-09
1.1351651496035773e-08
1.1981813632139121e-08
1.0138751510766881e-08
4.482194208761085e-09
4.344259175924533e-09
1.3017147147664005e-08
2.401747521994055e-08
2.9424021073498772e-08
2.6315594137645195e-08
2.3149257734987618e-08
2.5666461261215214e-08
3.715500828063269e-08
4.4324487095754315e-08
3.621414243013189e-08
2.01479163971096e-08
9.922899324914222e-09
1.681983199355034e-08
3.2836582475843804e-08
3.9697468588225946e-08
2.6098128050752064e-08
1.528199892076551e-08
3.0725064032936876e-08
7.218694224935504e-08
1.0596218247317717e-07
1.0698498505070608e-07
7.051112044355999e-08
2.7759650095905308e-08
1.7684686820920207e-08
4.3542311814032296e-08
6.821663218355909e-08
6.897273529388352e-08
5.2554468473268296e-08
4.5299634020807084e-08
6.255525007934303e-08
8.319053342372048e-08
8.684259713583266e-08
7.739418405715657e-08
9.69243344748919e-08
1.4190430461115006e-07
1.7962526252900177e-07
1.5915418929467842e-07
9.023440591185643e-08
3.653589927388922e-08
4.3383730639591064e-08
9.7322624613572e-08
1.1685576618247223e-07
8.208595115472808e-08
2.6120224137591298e-08
3.4439108851868185e-08
1.2273905136405346e-07
2.2070120357729203e-07
2.286589640291303e-07
1.4110864447911297e-07
4.2012013066855186e-08
2.053584563137194e-08
7.293805833068369e-08
1.088556796540274e-07
8.08032976359351e-08
3.492872257231006e-08
5.404994485106114e-08
1.4387945724648135e-07
2.1530780827678456e-07
1.94355824392368e-07
9.36893215742631e-08
2.538145723413186e-08
4.8372399416132e-08
1.158508980309632e-07
1.2414285502688676e-07
5.778393913612415e-08
1.3500652046953826e-09
4.207867910325363e-08
1.537103192036502e-07
2.1050791203738662e-07
1.4951271745818334e-07
3.971437443747425e-08
3.1211285019935345e-09
7.751237220145708e-08
1.714085858250945e-07
1.6603185496608323e-07
7.230323620661514e-08
2.2386321819471002e-26
2.0536323118809267e-27
1.8106956128096838e-28
7.399212525315588e-30
2.703934994757541e-11
4.0975100511640844e-11
3.5591262432197245e-11
3.70953335415085e-11
4.657609946655502e-11
7.612360514705809e-11
8.049103216957895e-11
2.93442539243677e-11
2.32304855365023e-12
2.5554919518146887e-11
8.895927135588104e-11
1.796837783722619e-10
2.2871372256077815e-10
2.8545208204503443e-10
3.046078383209415e-10
1.9513989033677706e-10
5.485290598656035e-11
1.3172568663654476e-13
6.04587090833229e-11
2.2525206014267188e-10
3.303338385598588e-10
3.4355717223964353e-10
3.3527268356970814e-10
2.5716861108029314e-10
1.2886066578495237e-10
3.125218240864197e-11
2.911691813038541e-11
1.3204109827916817e-10
2.0968888014774193e-10
2.2495628910256728e-10
2.1245002616661142e-10
1.8160756799981445e-10
1.478104630476257e-10
2.365024766471479e-10
3.3679666291095267e-10
3.778793522910274e-10
1.4971714062410953e-10
2.24453021481907e-12
3.318503881778007e-10
9.319160817538797e-10
1.4323819883304504e-09
1.322060454615609e-09
7.6282271199258e-10
3.289050905865133e-10
5.91861139463707e-11
1.2734955738741584e-11
3.1775449892167153e-10
1.1141953897681227e-09
2.2152194050844273e-09
2.581850645986735e-09
1.7303470007023797e-09
4.3441882037016276e-10
3.461124975535403e-11
6.593835877294034e-10
1.3435206516454683e-09
1.0270140147874271e-09
2.0525688403259447e-10
3.012387697131012e-10
1.6207575240619337e-09
2.872862243214524e-09
3.0253441019624578e-09
1.969854888283836e-09
6.605291150404019e-10
2.4975360906543908e-11
2.3700608747128053e-10
9.435393633699773e-10
1.910371872938848e-09
2.7932747063488693e-09
2.8480926794117267e-09
2.0589451355363296e-09
9.405515470947826e-10
1.411050946687286e-10
5.052231831162421e-11
4.3210939092458014e-10
6.934503492192436e-10
7.422685843372097e-10
7.203280687767318e-10
8.949502366150891e-10
1.281605246792481e-09
1.5654609582049366e-09
1.325688975616101e-09
7.273103165455992e-10
6.455686763519245e-10
1.216759750294414e-09
1.995277369581543e-09
2.6490869126477788e-09
2.309114521629142e-09
1.4677621913035518e-09
6.523946825252232e-10
1.2600717912246426e-10
7.343623858899672e-12
2.0572194970128356e-12
2.1204109669833268e-11
1.4308485381600278e-10
4.239072736757193e-10
7.472474508304813e-10
1.1062968246945032e-09
1.1262805388455994e-09
8.453026967228469e-10
5.26917136760186e-10
2.8529548316085297e-10
1.895256367178623e-10
1.5647330113339346e-10
1.9414418030246345e-10
2.3450670746452446e-10
2.8207784408161687e-10
4.5893416170082826e-10
4.70266970648765e-10
4.985441905282998e-10
5.968895095878438e-10
4.6056895368766947e-10
3.067794955467738e-10
3.048435965192714e-10
3.7897533579542015e-10
4.945017622667012e-10
6.349304044325044e-10
7.081227799476814e-10
6.810722550506463e-10
6.110748472019273e-10
4.663156748946984e-10
4.413190326901082e-10
5.076315594256285e-10
6.143815085104579e-10
1.0089482805976642e-09
1.331460248090496e-09
1.2721169557026628e-09
1.1100418810315475e-09
7.470669662256748e-10
5.152908678019798e-10
4.844101733540665e-10
4.5476456048711176e-10
4.668700173252935e-10
5.669671833965352e-10
7.514854943004271e-10
9.908473040433086e-10
1.0833469548025513e-09
8.572642054263844e-10
6.405245474041629e-10
7.269642089015525e-10
8.892335497175322e-10
9.55723793072159e-10
7.938597479087192e-10
6.614572029812835e-10
9.40168073690659e-10
1.209526706569362e-09
1.1418513083610293e-09
1.0328817748484713e-09
1.0081699920310899e-09
1.10104374420106e-09
8.625084679976482e-10
3.457056565716239e-10
9.056903711047926e-11
2.8491027617678965e-11
3.037345479192888e-11
2.1722853404760657e-11
6.765610339257419e-11
1.715221027525526e-10
2.4822459011563625e-10
2.9181631393502596e-10
5.614421606827957e-10
7.910782081381309e-10
6.31746513257272e-10
4.243052208194881e-10
2.596799422109089e-10
3.202647250731801e-10
5.742999191679708e-10
7.283446322289251e-10
8.159123550289208e-10
7.140670883313113e-10
6.209917101335955e-10
8.983500246387298e-10
1.1269163647200133e-09
1.0989137405300278e-09
8.959289434824535e-10
6.976817652646197e-10
8.415026926800528e-10
9.633992596071666e-10
8.343388056624694e-10
7.259548203386544e-10
7.315079258060244e-10
8.278997135387951e-10
9.312664576981072e-10
1.109293379051746e-09
1.0648670388621691e-09
7.698063830538067e-10
4.1082448894473196e-10
1.818978792916075e-10
2.7319873083344545e-10
6.253600204844223e-10
9.539926750710002e-10
1.111778504004735e-09
8.502088345138097e-10
4.837485568676771e-10
3.201982386363239e-10
3.4942158742344744e-10
5.133419418902923e-10
4.703405595696814e-10
9.817651181149583e-11
1.855581814305996e-10
8.378933803222737e-10
1.3352121045174598e-09
9.311296164159411e-10
4.711027351990067e-10
6.211725164761824e-10
1.1116443434903475e-09
9.607661257870652e-10
4.2942231499555253e-10
3.848973465184014e-11
5.988769275092909e-10
1.3472488465085452e-09
1.169878704249859e-09
3.2186228973048137e-10
6.027099508166813e-10
2.8793567128691974e-09
4.986353880940786e-09
4.165212782196043e-09
1.147083421559548e-09
3.4738977220292485e-10
4.349788130498077e-09
9.563639418277351e-09
9.145032335958301e-09
3.767451368681665e-09
1.796571141785462e-10
2.332343050892145e-09
7.523574430375993e-09
9.562234071725451e-09
5.648966954825756e-09
7.610007328241076e-10
1.5943781170040045e-09
7.461308348056701e-09
1.0773330735239382e-08
6.486476690725206e-09
9.053643454245828e-10
1.210300809958887e-09
6.484801598487629e-09
9.55494536570382e-09
7.542948443336836e-09
3.0822021206932976e-09
2.5441838083597335e-09
6.201509790937024e-09
8.778212720271587e-09
7.978296108120469e-09
4.937532230708094e-09
4.536552843538663e-09
7.030160522230598e-09
8.54932819741309e-09
9.28328915147056e-09
7.40176026310126e-09
6.522403115253361e-09
5.443397666643986e-09
6.952199451172613e-09
1.045748572368587e-08
1.2746219085074442e-08
1.0535327503004823e-08
4.747097219262341e-09
4.854444042303507e-09
1.2970525300283372e-08
2.037931457343837e-08
1.7250007979898593e-08
5.693308471256705e-09
3.2151400201812934e-09
1.4996728934968064e-08
2.732248817826342e-08
2.2943307557433237e-08
5.949154617362462e-09
1.2868073505867895e-09
1.7381878047058435e-08
3.493679626062784e-08
2.9665517518181386e-08
8.372973759211213e-09
1.5185861261313225e-09
2.1290738860397715e-08
4.403914125899346e-08
3.973337507164822e-08
1.374967804212875e-08
6.806157947470677e-31
1.6749185655539527e-09
1.32268452698213e-08
4.231839240221204e-08
6.31025844738373e-08
6.335611045278999e-08
4.975975453370355e-08
4.596880403202711e-08
4.835658076442153e-08
6.488189011088702e-08
6.615684069807453e-08
4.626325666550464e-08
2.6769296154498867e-08
1.0036746858533344e-08
8.294094237681359e-09
1.8017778155659362e-08
4.0088257264901005e-08
6.64334988068985e-08
7.494336999918647e-08
6.980832525578161e-08
4.5708393555935766e-08
1.8050734968786315e-08
4.560151197770627e-09
6.844537439161629e-09
2.5134214445392245e-08
3.399293802194645e-08
3.577657642054126e-08
1.6155909737010253e-08
9.931982429497842e-09
2.337957308145165e-08
7.11131697252093e-08
1.0341919219423613e-07
1.0420063642606998e-07
8.193064456787212e-08
3.885932713253268e-08
1.8027811975634433e-08
1.9901700475074137e-08
3.2404966125198306e-08
3.3483510404865066e-08
3.851126283834767e-08
4.887638396743564e-08
7.16617565761742e-08
7.563990245360272e-08
6.400484925075656e-08
2.8295610592656478e-08
2.742484154641582e-08
8.217585172852619e-08
1.5161974126731522e-07
1.8575068450591944e-07
1.6612751914625762e-07
1.4613877754290886e-07
1.620296130228568e-07
2.3455557633374032e-07
2.798157259962547e-07
2.2861599128103066e-07
1.2719163206084977e-07
6.264219758686339e-08
1.0618179270169458e-07
2.0729381808445642e-07
2.5060585516153553e-07
1.647546790984504e-07
9.647361769692262e-08
1.9396402895953988e-07
4.557084125827996e-07
6.689278762059209e-07
6.753847190152652e-07
4.451291295283589e-07
1.7524368929994394e-07
1.1164152832997316e-07
2.7487793745876857e-07
4.306442716015194e-07
4.3541746932147044e-07
3.317707144230766e-07
2.8597172379036773e-07
3.9490457448531366e-07
5.251729017345757e-07
5.4822798766894e-07
4.885811707884463e-07
6.118729125777863e-07
8.958266326011479e-07
1.133954988204136e-06
1.0047233017412972e-06
5.696401121466184e-07
2.3064720767470766e-07
2.738768315382475e-07
6.143872754416172e-07
7.376979000469717e-07
5.181997925172486e-07
1.6489416932125286e-07
2.1741039496365862e-07
7.748384474552427e-07
1.3932629919397877e-06
1.4434994789029655e-06
8.90803715652075e-07
2.652173258422712e-07
1.2964058764799037e-07
4.6045012772437385e-07
6.871942131085598e-07
5.101025386271502e-07
2.2050127378978483e-07
3.4121149616203623e-07
9.082955590303403e-07
1.3592150667300487e-06
1.226947442989369e-06
5.914506236195141e-07
1.602304132131014e-07
3.0536976167519566e-07
7.313542753426951e-07
7.837005091915311e-07
3.647838010030064e-07
8.522816622288809e-09
2.6563818136923586e-07
9.703567346006643e-07
1.3289138373434039e-06
9.438577256597695e-07
2.5071257997192715e-07
1.9703348982386254e-08
4.893272798484374e-07
1.0820839907526944e-06
1.0481412663721384e-06
4.564425638434655e-07
1.4132244505771361e-25
1.2964360197489364e-26
1.1430726910884126e-27
4.671043389851384e-29
1.706965118333502e-10
2.586714082593981e-10
2.2468381675966267e-10
2.3417885611550975e-10
2.9402991304001405e-10
4.80560142606063e-10
5.081312402795065e-10
1.852471230615074e-10
1.466515599289252e-11
1.613254619799327e-10
5.615903246611511e-10
1.1343243924372583e-09
1.4438451636314638e-09
1.8020283326013844e-09
1.9229565643882727e-09
1.231897167077316e-09
3.462805035617409e-10
8.315701106463677e-13
3.8166933637381695e-10
1.4219920606145287e-09
2.085362040582085e-09
2.1688395257407133e-09
2.1165404386316428e-09
1.6234778184218058e-09
8.134835417515969e-10
1.9729167064584426e-10
1.8381197661298402e-10
8.335612704668452e-10
1.3237433769989918e-09
1.42012488980809e-09
1.3411741952323205e-09
1.1464690697154125e-09
9.331115764106757e-10
1.4930147315629704e-09
2.126161156517276e-09
2.3855117617466224e-09
9.451482271484958e-10
1.416947815376496e-11
2.094935855422559e-09
5.8830861239345204e-09
9.042473635459965e-09
8.346025643117698e-09
4.815617843507573e-09
2.0763425080928827e-09
3.7363557996787527e-10
8.039440767510825e-11
2.005950020634538e-09
7.0337958162072076e-09
1.3984442160280832e-08
1.6298945803027185e-08
1.0923494753159953e-08
2.742439350639596e-09
2.1849710199714304e-10
4.162617762771389e-09
8.481501561856711e-09
6.483429160392896e-09
1.2957646615793752e-09
1.9016879961497386e-09
1.023166815849568e-08
1.8136070757811453e-08
1.9098672353508167e-08
1.2435482321130112e-08
4.169849353640858e-09
1.576667707171837e-10
1.4961939726012207e-09
5.956462652281954e-09
1.205997243452393e-08
1.7633643186338215e-08
1.7979703162104875e-08
1.2997899482558026e-08
5.937600889067847e-09
8.907813060804157e-10
3.1894196873256385e-10
2.727860170613061e-09
4.3776775688336214e-09
4.6858618434058125e-09
4.5473537253756045e-09
5.6497247141965915e-09
8.090636261557497e-09
9.882586877826844e-09
8.368932106442407e-09
4.59143190555422e-09
4.075405711150527e-09
7.681273607433694e-09
1.2595971714850031e-08
1.6723401132389356e-08
1.4577191945443692e-08
9.265825056524941e-09
4.11849755491874e-09
7.954697869537167e-10
4.635950861839205e-11
1.298700571191573e-11
1.338592667423539e-10
9.032793129247023e-10
2.6760810854374486e-09
4.71729289278138e-09
6.983933023308357e-09
7.110088064227626e-09
5.336305127662752e-09
3.326371286460796e-09
1.8010397406663497e-09
1.1964549870265918e-09
9.877991427421384e-10
1.2256113565831908e-09
1.4804156550852136e-09
1.7807271307763518e-09
2.897202067186479e-09
2.9687448727804438e-09
3.1472559245305643e-09
3.768099360158622e-09
2.9075223334010124e-09
1.9366660031900924e-09
1.9244448805707636e-09
2.3924305878866533e-09
3.1217365091256333e-09
4.008247443215075e-09
4.470303048008108e-09
4.299535989919159e-09
3.857649872822467e-09
2.9438007671067195e-09
2.785999649840864e-09
3.2046235082751578e-09
3.878524470483831e-09
6.3693821209529755e-09
8.405365529661865e-09
8.030737699076087e-09
7.0075751616952734e-09
4.71615351285768e-09
3.2529758993435077e-09
3.0580293922909967e-09
2.8708798225948953e-09
2.9473002713273206e-09
3.579202928968564e-09
4.744047205984931e-09
6.255112600250871e-09
6.839052959801628e-09
5.411816847283112e-09
4.0435626669098225e-09
4.589246965173914e-09
5.6136358838604965e-09
6.0333816482220805e-09
5.011551317455839e-09
4.175708273122659e-09
5.935180062657759e-09
7.635612179322505e-09
7.2083846596708664e-09
6.520471699382823e-09
6.36446886883073e-09
6.9507708904039375e-09
5.444923313591974e-09
2.1824026765527233e-09
5.717526029596845e-10
1.79860797035231e-10
1.9174435758856375e-10
1.3713404022097631e-10
4.2710571355227643e-10
1.0828006109225101e-09
1.5670151747786954e-09
1.8422050449197793e-09
3.5443240540376237e-09
4.993991755658471e-09
3.988147880218078e-09
2.6785932830112477e-09
1.639331582099029e-09
2.021796808697347e-09
3.625493702260321e-09
4.597961429363799e-09
5.1507670574624615e-09
4.507828828336211e-09
3.920253963307155e-09
5.671187210807398e-09
7.114101964676654e-09
6.9373244060194284e-09
5.655903185524134e-09
4.4043900438177385e-09
5.3123161103115505e-09
6.081836044010425e-09
5.267091261066263e-09
4.582874803598094e-09
4.617930961936238e-09
5.226441964133615e-09
5.878985117048689e-09
7.0028499490958495e-09
6.722391235458673e-09
4.859705008777972e-09
2.5934908706957514e-09
1.1483017737172095e-09
1.7246742425754619e-09
3.947830637337314e-09
6.022453286225854e-09
7.01853827598861e-09
5.367277048552672e-09
3.0538526784788286e-09
2.0213770869630014e-09
2.205860948879905e-09
3.2406725394035795e-09
2.9692094317337615e-09
6.197777736032722e-10
1.1714088679555505e-09
5.289530909085027e-09
8.429050596286027e-09
5.878121252732947e-09
2.9740209646138945e-09
3.921395374326902e-09
7.017691335071906e-09
6.065213353037708e-09
2.710896948900792e-09
2.429815605478145e-10
3.780645716021607e-09
8.505037255569622e-09
7.385318599402083e-09
2.0318820627792047e-09
3.804843180443498e-09
1.8177069647149017e-08
3.147831644967495e-08
2.6294540894771093e-08
7.241414428294593e-09
2.193034317636715e-09
2.745974524275536e-08
6.037422838555545e-08
5.773160683884161e-08
2.3783515816119187e-08
1.1341560642464197e-09
1.4723831155628143e-08
4.7495517247038084e-08
6.03653565837262e-08
3.5661321611656676e-08
4.804115884721796e-09
1.0065137795238024e-08
4.7102438157561516e-08
6.801087973260553e-08
4.094843061470893e-08
5.715467864497178e-09
7.640499010871585e-09
4.0937855937340294e-08
6.031934376551558e-08
4.761782330983334e-08
1.945761091844877e-08
1.6061159103007096e-08
3.9149465185580036e-08
5.541591400631527e-08
5.036612635548491e-08
3.117011061585032e-08
2.8638770815167212e-08
4.438064824413026e-08
5.397099059875053e-08
5.8604407264550274e-08
4.672651749349388e-08
4.117523027377951e-08
3.4363584776239914e-08
4.38884883765968e-08
6.601698410062185e-08
8.046551197067444e-08
6.650839089222033e-08
2.9967914843845496e-08
3.064558380722833e-08
8.188153301381855e-08
1.2865242389277255e-07
1.0889744749689062e-07
3.594124484201685e-08
2.029683359861857e-08
9.467273891837271e-08
1.7248393307087312e-07
1.4483863619379536e-07
3.755637408110473e-08
8.123476584035852e-09
1.0972992906627219e-07
2.2055224211691353e-07
1.8727522562127165e-07
5.285768397319349e-08
9.586671097926317e-09
1.344061475172604e-07
2.780143683787202e-07
2.5083252893454674e-07
8.680024058172449e-08
1.3377437322873359e-08
6.550496070863799e-09
5.0949101249871336e-08
1.6284234181708217e-07
2.2678109022122325e-07
2.202885404931264e-07
1.4804537966027317e-07
1.1799083745418402e-07
1.3036141835850714e-07
1.9220482591999718e-07
1.9815333353897406e-07
1.3202116272018952e-07
7.114461953887496e-08
1.963175939337191e-08
1.3326263240792365e-08
3.7586175701030536e-08
9.696840682808489e-08
1.7940478251530963e-07
2.0637912670795035e-07
1.9583518128329245e-07
1.3173037363214572e-07
4.281868683161988e-08
7.012091107455856e-09
1.6666202073052228e-08
8.083257955968855e-08
1.134576184292023e-07
1.2419872996833999e-07
5.2073552891969716e-08
1.9082257141156642e-08
5.5260454859887035e-08
2.069042328692798e-07
3.1168790458330614e-07
3.1099705437210345e-07
2.4345353875065955e-07
1.2111264536790804e-07
7.9401949281505e-08
1.0851044693813252e-07
1.5756710067886865e-07
1.3889493093002946e-07
1.3846126779603974e-07
1.747801647371999e-07
2.83768190234963e-07
3.166432030432587e-07
2.938907018792958e-07
1.414275547403512e-07
1.0843922508228322e-07
2.859343261453228e-07
5.43432339754381e-07
6.720465166538808e-07
5.913447458905284e-07
5.11509036010046e-07
5.85156852432552e-07
8.925651876872015e-07
1.1150481088392743e-06
9.322894968792514e-07
5.2618529014335e-07
2.697988765409381e-07
4.492046257319281e-07
8.68139108164555e-07
1.063839021889511e-06
7.14439737183623e-07
3.825949311636592e-07
6.848348016058325e-07
1.6479857000159962e-06
2.468854060049426e-06
2.5372410106191603e-06
1.7179856462843614e-06
7.549946222371611e-07
5.489843130453289e-07
1.208793667541057e-06
1.7723066308789554e-06
1.7480436397023778e-06
1.3213493145201184e-06
1.168822451736886e-06
1.6404964087375026e-06
2.164267630640031e-06
2.1787620843265434e-06
1.7938291275860595e-06
2.17820767144409e-06
3.288232817202154e-06
4.3278273946629764e-06
3.93995826097045e-06
2.3117793834719476e-06
1.0068630257595726e-06
1.1853941828680501e-06
2.5929720947242007e-06
3.1248468329317606e-06
2.250786266746292e-06
7.553330225222467e-07
7.87285301531426e-07
2.837462480439843e-06
5.174305270886773e-06
5.3725432642082575e-06
3.3036307578073457e-06
1.0438877337302677e-06
6.928048879553875e-07
2.1434096603164735e-06
3.043651656862166e-06
2.2184040614999002e-06
8.677421362437681e-07
1.1922405345982349e-06
3.3689552883714983e-06
5.136958247709128e-06
4.632396310777843e-06
2.159277578768424e-06
5.836762800671955e-07
1.3476901043834282e-06
3.224969484912968e-06
3.4583888538303116e-06
1.6703182485886422e-06
5.8714444156409314e-08
9.292116239879541e-07
3.6631642068997962e-06
5.097951848794708e-06
3.6260621660211378e-06
9.273108655960637e-07
1.0423053391555514e-07
2.0542672424589944e-06
4.495376140388899e-06
4.313692627040188e-06
1.865313432660913e-06
4.326576717859432e-25
3.972413392847313e-26
3.543470275963789e-27
1.049204888161914e-28
8.022993845920391e-10
1.265531782196788e-09
1.0816136142122828e-09
9.501266827647782e-10
1.0624184578877801e-09
2.033941838354845e-09
2.49050718580024e-09
1.1226406387331966e-09
2.489154642888582e-10
6.79271514523804e-10
2.0930931487156967e-09
4.155630253097156e-09
4.765181382179664e-09
5.8131616139349095e-09
6.789646085112159e-09
4.699232653146523e-09
1.6855857023125842e-09
2.7092686795724975e-10
8.96422940620617e-10
4.54912886064903e-09
7.34570156365374e-09
7.756853335067949e-09
7.328009608612136e-09
5.47641430762512e-09
3.0443843070388458e-09
1.4801859120337338e-09
1.033070879724591e-09
2.5979805474755353e-09
4.140384805760628e-09
5.033785283011126e-09
5.541495308293638e-09
4.562228550249814e-09
3.060966001450479e-09
5.288330917790009e-09
8.425712680097467e-09
1.0510255442289981e-08
4.971202450555772e-09
2.719477577014003e-11
6.244761470553789e-09
1.8602049433676332e-08
2.904071776102606e-08
2.647683349859564e-08
1.528606100842679e-08
7.801186250768716e-09
3.045157843990803e-09
5.164328869797814e-10
4.379152513429243e-09
2.059735376179266e-08
4.6715750670554764e-08
5.6837525412083964e-08
3.829474829179339e-08
9.224315365014586e-09
1.5913789089734135e-09
1.804178755087222e-08
3.593524560761582e-08
2.7591935179302574e-08
6.10145714162245e-09
5.777002635476869e-09
3.4942330022394614e-08
6.368974488269569e-08
6.767203682235844e-08
4.4753256535684335e-08
1.513807943339783e-08
9.154173365698506e-10
3.889966757326763e-09
1.659727660947865e-08
3.665635568916835e-08
5.6184304852258836e-08
5.994204255615485e-08
4.563243432164108e-08
2.2019644051637243e-08
3.3593007537905473e-09
1.3613184175392262e-09
1.0355528660686295e-08
1.6025805096572726e-08
1.632393907869328e-08
1.3959610181086274e-08
1.7879629290123855e-08
2.7991929210497637e-08
3.571299438203716e-08
3.0699395583463484e-08
1.5579966034418992e-08
1.0524973969861368e-08
2.1926380985192087e-08
4.015435112532666e-08
5.541255007680232e-08
4.6522583446390766e-08
2.811221663292464e-08
1.07716366977565e-08
1.0552720739435852e-09
1.8078599928103852e-10
2.4017038636263744e-10
9.855783164617974e-11
1.8840253150109917e-09
7.662686585805245e-09
1.515197605558181e-08
2.297778369696488e-08
2.1608136069558006e-08
1.4884405873516782e-08
8.24221120916875e-09
4.370349938462775e-09
3.267985105836054e-09
2.5811490042636917e-09
3.199109618167096e-09
3.6272493251343023e-09
4.017078645956033e-09
7.3534526128030396e-09
7.439120862090294e-09
8.88392229166836e-09
1.1222357806578764e-08
8.847260380427848e-09
5.913744221061782e-09
5.636300653869583e-09
6.277673600869151e-09
7.508372163442087e-09
1.0055077180027863e-08
1.2067924278425459e-08
1.2350109693461546e-08
1.2474345185703113e-08
9.915422511469657e-09
9.367257252293185e-09
9.694961057041377e-09
1.0129223854793633e-08
1.7608025488373577e-08
2.3739099362488696e-08
2.3453146211779047e-08
2.2083097445724203e-08
1.493561947480873e-08
1.045329878278317e-08
9.429710878635723e-09
7.873401909320628e-09
6.92167760902359e-09
7.602737406266114e-09
1.0558852916816378e-08
1.6124568119957565e-08
2.006193341715048e-08
1.6528282988935627e-08
1.175001957524062e-08
1.334040519414825e-08
1.6208233850875082e-08
1.8414893604185586e-08
1.5212395903519594e-08
1.06789605282953e-08
1.562869296569998e-08
2.1216437173721458e-08
2.003813732985511e-08
1.877998332122109e-08
1.8639005543081868e-08
2.0785637882245905e-08
1.586603858070347e-08
5.754173991007799e-09
1.3540402881160373e-09
3.5813341587689127e-10
6.177306624812107e-10
2.5654046416394387e-11
6.994218002699473e-10
2.709102892262457e-09
4.26150265335154e-09
4.707282273400042e-09
1.0742496089574952e-08
1.6893720052957525e-08
1.4206867204820205e-08
1.0069995677008093e-08
5.465251476779969e-09
5.801600636914201e-09
1.095236937892793e-08
1.4261070292176708e-08
1.6963195638208565e-08
1.4589379133933704e-08
1.2090118897527075e-08
1.8872085867715433e-08
2.4480501441236538e-08
2.539078602852253e-08
2.1801616903982022e-08
1.569104147830483e-08
1.720360312139378e-08
1.7995688498594573e-08
1.3996754414696785e-08
1.2023226593542476e-08
1.3218921376131279e-08
1.651093710524408e-08
1.9837466014465748e-08
2.4373613587311317e-08
2.200798593996559e-08
1.5750970271308634e-08
7.533638396766938e-09
1.5251478564051978e-09
3.3460669303012898e-09
1.0504754558358932e-08
1.6711222160501578e-08
2.1624933314523535e-08
1.7593217161351644e-08
1.0741166002062474e-08
7.06056867856553e-09
6.223149326605833e-09
9.140130453336134e-09
7.788384393762142e-09
9.643136269307436e-10
4.2297930963583645e-09
2.039540313708616e-08
3.3543630832278395e-08
2.175504891668437e-08
9.524991485420953e-09
1.49267768884023e-08
3.1439349358037693e-08
2.88506420493749e-08
1.393722854606283e-08
3.431594983834365e-10
1.2915688654828252e-08
3.49418278116437e-08
3.344142530016936e-08
9.965959084757356e-09
1.0300936645931917e-08
6.469294363899045e-08
1.2322428936463917e-07
1.1169972098914742e-07
3.72099472071617e-08
4.012029309323044e-09
9.056805913603207e-08
2.1884229684020045e-07
2.2006807793835945e-07
9.517481664674148e-08
4.191985474882623e-09
5.307893964570657e-08
1.7798981341320105e-07
2.339276478674964e-07
1.3930445950002953e-07
1.4509719902540395e-08
3.3588425956575916e-08
1.8484953812557196e-07
2.739021543675575e-07
1.6526681612239045e-07
2.677337526650509e-08
3.3529808052753035e-08
1.6308051412508833e-07
2.3007344928146186e-07
1.7745634672215015e-07
7.53433903958831e-08
7.34343812577733e-08
1.6353165789057667e-07
2.18742310802192e-07
1.9425447862969194e-07
1.289614155620859e-07
1.324246978353212e-07
1.9448917405328648e-07
2.2207665171152527e-07
2.3548436587206462e-07
1.9549552668635407e-07
1.8602691117090573e-07
1.51897233593218e-07
1.7831903033666272e-07
2.586420746949292e-07
3.301046634040969e-07
2.832982689151399e-07
1.2859768105652738e-07
1.176752827305277e-07
3.2411268499520135e-07
5.320030388105897e-07
4.6144157741904735e-07
1.5543730554601092e-07
7.514410982682252e-08
3.779039187846358e-07
7.142542852970116e-07
6.110925362096129e-07
1.6752342633571478e-07
2.7980884732132624e-08
4.390628936657077e-07
9.034444817931162e-07
7.769923918176066e-07
2.2406671190756084e-07
3.616300544752296e-08
5.450689828316941e-07
1.1387837483367415e-06
1.0358301068433463e-06
3.5911477384675035e-07
5.490033815281397e-08
1.282538054468368e-08
9.495177371323143e-08
2.9842548164925115e-07
3.9160938013639726e-07
3.5436015148493724e-07
1.809075657054103e-07
1.0692377083655014e-07
1.3880930331486787e-07
2.5624364793047063e-07
2.6696436823861947e-07
1.5883061712748324e-07
7.079756464573904e-08
7.661100666245258e-09
1.7289985712681822e-09
1.9442514940858547e-08
7.500928790263554e-08
1.7494324970682476e-07
2.1996883273683457e-07
2.1967924743144464e-07
1.6801419546086576e-07
4.2124349183452185e-08
2.9047247188553485e-09
2.3196899381735515e-08
1.3062073896684162e-07
1.9291414124141446e-07
2.210152789352292e-07
9.1082767492735e-08
9.905187987909513e-09
4.4941071290750794e-08
2.7298005980868e-07
4.2718914597220544e-07
4.1514197349368194e-07
3.1288507134791974e-07
1.7848101390766652e-07
1.9572742882329533e-07
3.1573930282239207e-07
4.2196049378351844e-07
3.251611697205301e-07
2.6180435114292033e-07
3.0901055547697467e-07
5.561952701474678e-07
6.756359044673675e-07
6.755401723901948e-07
3.628064178416955e-07
2.310998359471434e-07
5.071321533030903e-07
9.649252517600624e-07
1.195509473947154e-06
1.042656464397535e-06
8.749626575858822e-07
1.0234305054319415e-06
1.6579614593437536e-06
2.168912940907162e-06
1.8789158228132547e-06
1.1064489206164796e-06
6.327998077085935e-07
1.0079841176786545e-06
1.8752516778464652e-06
2.28709992171355e-06
1.5832362009248617e-06
8.327837949145611e-07
1.266325783032139e-06
2.983341993549043e-06
4.521167022840456e-06
4.6933666751690095e-06
3.275180744571488e-06
1.6873045828370738e-06
1.5279931146578552e-06
2.923895148689964e-06
3.921495665417711e-06
3.658450648807105e-06
2.7235753488468762e-06
2.4987850163787694e-06
3.5759194472532106e-06
4.630930891604897e-06
4.425133084648276e-06
3.297603394497084e-06
3.8124430312064016e-06
6.052867807467851e-06
8.403943952697983e-06
7.890694033624708e-06
4.7784469641189424e-06
2.2227157870918058e-06
2.6970261116170607e-06
5.760255129667407e-06
6.983280686049313e-06
5.206038442212123e-06
1.8751589393430412e-06
1.4892355136190818e-06
5.201102432334259e-06
9.664820580351096e-06
1.0092683722446845e-05
6.135967438929068e-06
2.104947522477664e-06
1.9552460602254854e-06
5.300620133552315e-06
7.163641560251304e-06
5.149423977234327e-06
1.8898360178808018e-06
2.1048467068812158e-06
6.283002397214179e-06
9.806053028170004e-06
8.772755532866156e-06
3.8487714834652425e-06
1.0260919969558805e-06
3.159245382396586e-06
7.504261564755623e-06
8.054281209405652e-06
4.081268309663091e-06
2.3060801247035656e-07
1.5683657517416598e-06
6.991563062772722e-06
9.993145796747722e-06
7.086002350380562e-06
1.73718372389379e-06
2.901266580042335e-07
4.525667915757037e-06
9.662837477966992e-06
9.213002904211034e-06
3.962999595851302e-06
9.133717689309964e-25
8.401390159184951e-26
7.443599908991499e-27
2.034060846219898e-28
1.974059256265647e-09
3.3180898948809006e-09
2.874704598900138e-09
1.8859901568297293e-09
1.757108122108792e-09
4.576455947363326e-09
6.066984738474484e-09
3.1187591805214234e-09