# vtk DataFile Version 4.1 
COMMENT
ASCII
DATASET STRUCTURED_POINTS 
DIMENSIONS 400 400 1 
ORIGIN 0 0 0
SPACING 0.002506265664160401 0.002506265664160401 0 
POINT_DATA 160000
SCALARS U double 1
LOOKUP_TABLE default
1.1397850186247782e-06
4.480531285994957e-09
1.2439398468213844e-08
1.138267668207919e-08
3.6297236996303827e-09
1.27810249658712e-09
1.7673848412211894e-08
3.9016637298436255e-08
4.8867953860585e-08
3.180015399723963e-08
3.98012960463538e-09
5.612124669500022e-09
4.719991400654565e-08
1.0325811812717307e-07
1.1897100373353287e-07
8.767846327772938e-08
2.758577695389128e-08
1.4791670095357994e-10
3.628458956995213e-08
1.1382184876073432e-07
1.6934932732826257e-07
1.6481245371373843e-07
1.036046147020304e-07
3.5954826701850703e-08
1.4011435278467038e-08
4.514539742634208e-08
1.0760296197493149e-07
1.627306046961222e-07
1.8270008774815282e-07
1.5479770842510416e-07
1.0749334259717539e-07
5.219990098779686e-08
3.701207295186859e-08
6.53356550755389e-08
1.3633024403403393e-07
1.9350907720057508e-07
2.0717420178294272e-07
1.682842634161913e-07
1.0094177564575577e-07
5.894469481810071e-08
6.75274906208916e-08
1.14908909623096e-07
1.7337562111217883e-07
2.0077496061465706e-07
1.9192529886808025e-07
1.8489111796467694e-07
1.683137436053229e-07
1.591138827437334e-07
1.492899823009682e-07
1.436502063930453e-07
1.4490956804319602e-07
1.7380724069972157e-07
2.2407107066712446e-07
2.807516285908022e-07
2.6975020726614643e-07
2.2151267024408533e-07
1.5417853045534473e-07
1.3200251015785165e-07
1.5602341578369451e-07
1.977197515196374e-07
2.039001818921456e-07
1.8881632590027291e-07
1.689975601143165e-07
1.986222832477258e-07
2.506569868887554e-07
2.7127454265183117e-07
2.2833731043817684e-07
1.3401813192576098e-07
7.431341302189633e-08
1.0308671093402484e-07
1.9496153113111113e-07
2.9820114138566153e-07
3.3940618864300546e-07
3.0694136621150593e-07
2.212513196133753e-07
1.3299443533338946e-07
1.0872300316928714e-07
1.4170315502681247e-07
1.8225665620042924e-07
1.738730455421037e-07
1.3977981673544146e-07
1.370561999682143e-07
1.9305360975152507e-07
2.761806700716609e-07
2.831284646675456e-07
2.1460744924690671e-07
1.1540230091103982e-07
4.600010787335361e-08
5.039261691254776e-08
1.0883085795882651e-07
1.6339546378956457e-07
1.961129899776322e-07
1.8047491297826461e-07
1.3504918265060689e-07
7.794117619892951e-08
4.6788288325827027e-08
6.349089021763023e-08
1.163202210564158e-07
1.4603251498470463e-07
1.215306594430628e-07
6.916227002528405e-08
4.8882006610461366e-08
7.618326507264525e-08
1.149787133551785e-07
1.0233282833832291e-07
6.934047129074722e-08
5.8914317483319606e-08
7.850639986791052e-08
7.940780838744793e-08
4.437695286551094e-08
1.796183436821878e-08
5.6019966915431755e-08
1.3175075325662288e-07
1.5649125047825945e-07
9.64673716963918e-08
2.158693428895052e-08
5.0337319362550445e-09
3.9236936532538966e-08
6.041954557790441e-08
2.836946933329785e-08
8.201438354761118e-27
7.53336223761767e-28
5.312898632491583e-29
1.977715398584669e-29
3.0657166507565216e-11
5.897353526422731e-11
4.467578497709781e-11
6.514825486760918e-12
3.624559605389636e-11
1.0737045794107286e-10
1.820629112381216e-10
2.6764247152223294e-10
1.8509718169377435e-10
5.335750751644978e-11
1.4745499509646822e-10
1.5939896386674002e-10
2.317599283241206e-11
3.553351801216094e-11
2.5425925128070014e-10
5.498598045881569e-10
6.445321053569106e-10
4.283167591871842e-10
1.8788031148256673e-10
5.203272587200561e-11
6.994956489720909e-12
1.8855247326282252e-11
6.752244741879376e-11
3.1081205031722084e-10
6.821344629792027e-10
6.987992263599607e-10
4.5963766533432874e-10
2.0807116472153774e-10
6.210330385828578e-11
8.242583342986811e-12
6.064090541811704e-12
4.860267156372756e-11
2.0036899550767194e-10
4.963659898138758e-10
8.637460690663501e-10
9.41149324628745e-10
7.632097357432448e-10
3.586858336076808e-10
4.921219621255843e-11
3.0715537812223914e-11
2.5441879527776254e-10
7.607994748334488e-10
1.6412616424665831e-09
2.081359822212362e-09
1.991370915690046e-09
1.181219673032578e-09
2.7222802997827334e-10
3.4887504686664683e-10
1.5294458239827993e-09
2.4526823170844653e-09
2.921234368206073e-09
2.668875575756397e-09
1.8794475778649874e-09
6.057432273842725e-10
1.481523330687812e-10
9.042062635862647e-10
2.3641623238392846e-09
3.3851743102645164e-09
3.179768864792599e-09
2.010874654509582e-09
6.993325128259949e-10
9.173177528439036e-11
1.635810786576332e-10
8.473429231054898e-10
1.943398734053036e-09
2.534734013288785e-09
2.6847471016657707e-09
2.0932485329800417e-09
1.1142893613971438e-09
5.520021698526591e-10
7.931731730268257e-10
1.6813887700649951e-09
2.5914788915240816e-09
3.248858112282928e-09
3.5297018470271572e-09
2.7365368003794074e-09
2.0698487047098037e-09
2.0921782025688457e-09
2.6268535526302443e-09
3.5981856132166155e-09
4.622967359372666e-09
4.796740463828638e-09
4.073926932996179e-09
3.5283775833695373e-09
2.7508726788245362e-09
2.3910206959621576e-09
3.476731078428312e-09
5.106867454210561e-09
6.804059793444074e-09
7.48362504025079e-09
5.830103792933285e-09
3.810080383812641e-09
2.902255856135477e-09
3.6136576257315674e-09
5.439805048719408e-09
7.232273366395741e-09
7.350016860556944e-09
5.499409647880658e-09
3.298807646924408e-09
2.416513455563111e-09
3.8248868394281436e-09
6.479001570594882e-09
7.537022017687186e-09
5.966650864209717e-09
3.495609724603823e-09
1.28992268402109e-09
1.173355446061742e-09
2.8375584865679585e-09
4.459750698996849e-09
5.684463126084448e-09
4.9442717880279355e-09
2.569354606888599e-09
9.132783047555584e-10
1.1956632810614627e-09
2.9059631139964398e-09
5.141046860977583e-09
6.0183138234547985e-09
5.098838985499841e-09
3.0924922949918902e-09
1.9163326001287512e-09
3.4653971394501488e-09
7.26440185434464e-09
9.906383961971612e-09
9.276613631145165e-09
6.581573100934101e-09
4.460700156559159e-09
5.177716005066664e-09
8.519352329592813e-09
1.2336739470870512e-08
1.2984105543953355e-08
9.63411052122577e-09
7.117773476392877e-09
8.26231378399234e-09
1.1051735395956885e-08
1.3119392989543489e-08
1.2170555906834506e-08
8.530753494036633e-09
6.696776336212e-09
7.634935258005424e-09
9.821402162458472e-09
1.0794086361417203e-08
8.19562033173409e-09
5.21513697240977e-09
4.128077161825294e-09
4.6341437996805535e-09
5.657033865335563e-09
5.645273200092803e-09
4.127000009089648e-09
2.566722815375558e-09
1.888698777549024e-09
2.310816549023048e-09
2.5752633098407703e-09
2.3544070422203955e-09
1.9211207343917676e-09
1.3164638245275322e-09
1.1883666729654247e-09
1.2309894841543846e-09
1.4858751926376746e-09
1.9549427815431355e-09
2.2862160239981196e-09
2.3759191154740813e-09
2.4311848659427637e-09
3.0733071401455342e-09
3.469404359927562e-09
3.3836268442872728e-09
3.5102494429860665e-09
3.979725236200234e-09
5.023017195535291e-09
5.37392482350888e-09
4.796111489823485e-09
3.49757374328548e-09
3.005259269211301e-09
5.05243308259357e-09
7.901287716033602e-09
9.114604575409569e-09
7.377592482812035e-09
4.640855060780984e-09
4.984653224202115e-09
8.679365610766634e-09
1.3801075357148653e-08
1.4907697182698998e-08
1.158694308048008e-08
8.646030991647617e-09
8.59235020937674e-09
1.2642106330027928e-08
1.75249298773287e-08
2.0638039147522294e-08
1.9679466874205877e-08
1.6815218759741307e-08
1.6524716908087475e-08
1.973522635378879e-08
2.5342022640076782e-08
2.89527927324183e-08
3.117175061306821e-08
3.19464005346266e-08
3.025071380668863e-08
2.8824980698703302e-08
2.7546446968204703e-08
2.9110298249995865e-08
3.3575516588689315e-08
3.7518808679044104e-08
3.753398313934393e-08
3.3855962782734646e-08
3.0934361932592635e-08
2.920422469486809e-08
3.0705988234599274e-08
3.5271506524702475e-08
4.0434904967992396e-08
4.224777600385499e-08
3.829663773104013e-08
3.187168918766675e-08
2.5023900959114065e-08
2.3551946036267176e-08
2.7945277007466108e-08
3.341369673660322e-08
3.360863363629506e-08
2.5853239449826194e-08
1.6877033518549047e-08
1.0905057406703082e-08
1.214563591595797e-08
1.862471719194582e-08
2.4613104826095345e-08
2.425473810166144e-08
1.6028292096845648e-08
8.211871008022148e-09
5.945798475468224e-09
1.067271700746164e-08
1.6560690514305444e-08
1.8542207429544418e-08
1.4913171487719894e-08
7.2939849857071925e-09
2.460999604035711e-09
2.3233610023609923e-09
5.864665668482982e-09
7.99983210129299e-09
7.44513491134297e-09
5.3476135386148385e-09
2.1150053579039795e-09
8.37455401042206e-10
2.0035400085017308e-09
4.708032042974317e-09
5.73869487195194e-09
4.305456164544544e-09
2.2687920473543855e-09
7.831787667890962e-10
5.122575301149437e-10
9.265126445479047e-10
1.5763342457683441e-09
2.2328573701366645e-09
2.2490869755672925e-09
1.2042363362137356e-09
5.568340517102467e-10
4.034269551725394e-10
1.008976819896594e-09
1.9851667148288448e-09
2.6210316119774893e-09
1.903207538930801e-09
4.4129308952008247e-10
1.9101425022412643e-10
5.255371387983467e-10
8.183311397655081e-10
1.0001063284683477e-09
9.875808901082439e-10
7.337182319902154e-10
4.056934903123969e-10
2.764333330108896e-10
1.536747410676444e-09
3.1185681841446258e-09
4.0712229152524135e-09
3.640376348801412e-09
2.2945904722912794e-09
1.19222870315916e-09
3.542768029641002e-10
7.756486664416448e-11
2.0463373329046995e-11
6.4432777462984685e-31
4.318702714455856e-09
2.8285112739853932e-08
7.852858637304714e-08
7.18576152431488e-08
2.291405583518129e-08
8.068523775752995e-09
1.1157310661998676e-07
2.46307840359426e-07
3.0849814365389136e-07
2.00750956425227e-07
2.5126130675224726e-08
3.542874022174661e-08
2.9796798722499923e-07
6.518574084420602e-07
7.510511675021807e-07
5.53504720839597e-07
1.7414604683069658e-07
9.337822448996012e-10
2.2906071650775643e-07
7.185451052466097e-07
1.0690841130539362e-06
1.0404433172459931e-06
6.54044804100796e-07
2.2697895894234858e-07
8.845268589852065e-08
2.849980447365711e-07
6.79285940958962e-07
1.027300828016046e-06
1.1533660295355257e-06
9.772213059556427e-07
6.785939256017664e-07
3.2953236797255743e-07
2.3365324095640722e-07
4.124569725738343e-07
8.606381869060313e-07
1.2216020189194867e-06
1.3078684825919054e-06
1.062360478979056e-06
6.37234587162853e-07
3.721115269427312e-07
4.262937949393661e-07
7.254076037059088e-07
1.0945016732343148e-06
1.267470760460102e-06
1.2116037964252978e-06
1.1671977679466661e-06
1.0625465842464794e-06
1.0044688508146405e-06
9.424516225369876e-07
9.068483230171883e-07
9.147985378424042e-07
1.09722644132879e-06
1.4145366009093692e-06
1.772354874836015e-06
1.7029040837123855e-06
1.3983856938449445e-06
9.733125019404982e-07
8.333176678018515e-07
9.849590648531564e-07
1.2481835536133214e-06
1.2871999466945695e-06
1.191977184024563e-06
1.0668634444167712e-06
1.2538811394688353e-06
1.582370634335643e-06
1.7125270492683253e-06
1.4414689143331482e-06
8.460420715180859e-07
4.6913259415861884e-07
6.507753332431271e-07
1.230771204570097e-06
1.8825117748002828e-06
2.142634812165967e-06
1.937687875309484e-06
1.396735815385805e-06
8.395795848890691e-07
6.863566407116132e-07
8.945567968813647e-07
1.1505666938051912e-06
1.0976418602304337e-06
8.824149688400441e-07
8.652210687411926e-07
1.218726701836894e-06
1.7434989046863948e-06
1.7873595856846994e-06
1.3547937754023014e-06
7.285223299099139e-07
2.903937399812888e-07
3.18123177731849e-07
6.870375164129364e-07
1.0314980120582413e-06
1.2380402405861954e-06
1.1393187402265773e-06
8.525509839954817e-07
4.920342734252302e-07
2.9536943851669344e-07
4.0081117017813003e-07
7.343170611908447e-07
9.218875812647161e-07
7.672099990553877e-07
4.3661398172225174e-07
3.085868571544086e-07
4.809367693080254e-07
7.258482671686967e-07
6.46016153393475e-07
4.377389471699355e-07
3.7191975809118774e-07
4.9560246973497e-07
5.012929648955499e-07
2.80146936765207e-07
1.1339113102673761e-07
3.536480338478453e-07
8.317283535264325e-07
9.879124550282785e-07
6.089881556409934e-07
1.3627599744238706e-07
3.177740902384078e-08
2.4769856576124954e-07
3.814221013707913e-07
1.7909341264290898e-07
5.177479939008318e-26
4.755730662281419e-27
3.3539758390967157e-28
1.2485104878335964e-28
1.9353539917496568e-10
3.722935935812811e-10
2.8203343178711294e-10
4.1127393519044776e-11
2.288145546293184e-10
6.778181679672372e-10
1.1493436026689276e-09
1.689598174359902e-09
1.1684986261344743e-09
3.3684021364561094e-10
9.308675454170025e-10
1.0062685373226788e-09
1.4630755334124443e-10
2.2431928243849198e-10
1.605111342510899e-09
3.4712058841112104e-09
4.06886194980051e-09
2.7039176938339546e-09
1.1860682255459765e-09
3.2847700942339753e-10
4.415840896827776e-11
1.1903115106656198e-10
4.2626195774622925e-10
1.962123088305926e-09
4.306241594476878e-09
4.411444455682447e-09
2.9016432100591227e-09
1.3135309132775105e-09
3.9205148653681245e-10
5.203454328123321e-11
3.828195222650634e-11
3.0682344500867627e-10
1.2649079463457552e-09
3.1335051773881225e-09
5.452736156203879e-09
5.941374594430498e-09
4.818061082874024e-09
2.2643451399377553e-09
3.1067130864569406e-10
1.9390389095142175e-10
1.6061185266272084e-09
4.80284536464455e-09
1.0361108455569298e-08
1.3139400991908455e-08
1.2571310691038107e-08
7.456912917156557e-09
1.7185463123429381e-09
2.2024106970505447e-09
9.65522720398676e-09
1.5483520017063072e-08
1.8441438787073732e-08
1.684832483702853e-08
1.1864750681403098e-08
3.823991929600469e-09
9.352697651328451e-10
5.708157018245263e-09
1.492470280793046e-08
2.1370241807970464e-08
2.007353929398212e-08
1.2694435699244969e-08
4.414811035860462e-09
5.790928441580461e-10
1.032669778782854e-09
5.34918485766894e-09
1.2268467461213792e-08
1.6001503561757836e-08
1.694852007528151e-08
1.3214453145979204e-08
7.034389049007415e-09
3.4847304059075e-09
5.00721704397372e-09
1.0614426701911049e-08
1.6359727882902868e-08
2.0509692292284793e-08
2.2282628623373963e-08
1.7275462880358462e-08
1.3066732543561872e-08
1.3207696265061043e-08
1.658304431875714e-08
2.2714959283260988e-08
2.9184296371559334e-08
3.028130731444801e-08
2.5718263134086272e-08
2.227426868914693e-08
1.736596374111862e-08
1.5094256826195892e-08
2.194822985097429e-08
3.223910569296696e-08
4.295329862952542e-08
4.724332103827335e-08
3.680481901412474e-08
2.4052628209718027e-08
1.8321629478916582e-08
2.2812632436368014e-08
3.434090496517699e-08
4.56565649197381e-08
4.6399866951161026e-08
3.471718239735551e-08
2.0825018339232317e-08
1.5255189879295377e-08
2.4146099773608494e-08
4.090124098425348e-08
4.758041042128399e-08
3.7666826008121914e-08
2.206740871646269e-08
8.143143349378361e-09
7.407266897012208e-09
1.7913201934194534e-08
2.8153927126246223e-08
3.588540512805206e-08
3.121265671729242e-08
1.6220059650441402e-08
5.76542783968917e-09
7.548093863207361e-09
1.8345032999584064e-08
3.245487661656444e-08
3.799296872054739e-08
3.2188422832360456e-08
1.9522571683494256e-08
1.2097601865012431e-08
2.1876679911620882e-08
4.585938861313274e-08
6.253793787457629e-08
5.8562265421775696e-08
4.154876403773887e-08
2.8159920949852708e-08
3.268636498444517e-08
5.378175616500787e-08
7.788051114975993e-08
8.196726363340844e-08
6.081910488893538e-08
4.493373941296058e-08
5.215909943598941e-08
6.976841845135293e-08
8.282131874574848e-08
7.683141216032493e-08
5.385373049150506e-08
4.227602968768904e-08
4.819852619022918e-08
6.200145690242497e-08
6.814190777123587e-08
5.17380708356466e-08
3.292259953177277e-08
2.6060107712229947e-08
2.9254852038724734e-08
3.571224715121164e-08
3.5638003334785903e-08
2.605330776271032e-08
1.6203445433308968e-08
1.1923152511306572e-08
1.4587936661561044e-08
1.6257360657505203e-08
1.4863118762917363e-08
1.2127828842305573e-08
8.310694718524155e-09
7.502031160049797e-09
7.771104388829079e-09
9.380170488370095e-09
1.2341343793034606e-08
1.443263618950214e-08
1.49989221706852e-08
1.5347808917117586e-08
1.940145786168992e-08
2.1901977064066034e-08
2.1360472821474548e-08
2.215982768610939e-08
2.512357794072819e-08
3.17097680165826e-08
3.392501017983503e-08
3.027733666911366e-08
2.2079807355438266e-08
1.8971878961728193e-08
3.189546735192413e-08
4.9879980647965727e-08
5.75395196548435e-08
4.657394889246894e-08
2.9297219509173085e-08
3.1467580386356866e-08
5.479190282150432e-08
8.712470631069014e-08
9.411069102949201e-08
7.314712707532654e-08
5.4581464951587266e-08
5.424258393914096e-08
7.980825933115989e-08
1.1063299990509981e-07
1.302857243385051e-07
1.242343605404657e-07
1.0615266985218079e-07
1.0431876286645144e-07
1.2458636414576322e-07
1.599814668566314e-07
1.8277587060486766e-07
1.967839133598313e-07
2.016741951069283e-07
1.9096950693275591e-07
1.819690069647365e-07
1.7389776085562066e-07
1.8377018601914802e-07
2.1195862976750159e-07
2.368522091719118e-07
2.3694800390984576e-07
2.1372905646685977e-07
1.952853041186895e-07
1.8436313357667737e-07
1.9384360549362896e-07
2.226652320616841e-07
2.552612118165292e-07
2.6670567193947696e-07
2.4176256042798075e-07
2.012025503985628e-07
1.5797319885521204e-07
1.486809055348091e-07
1.76415532053829e-07
2.1093707842288575e-07
2.121676941318255e-07
1.6320872366509712e-07
1.0654289978480708e-07
6.884245606035993e-08
7.667409493465971e-08
1.1757583909049759e-07
1.553798869924314e-07
1.531175563544311e-07
1.0118488635570689e-07
5.1840659609514395e-08
3.7535187117820663e-08
6.737571607639672e-08
1.0454586037846187e-07
1.17054963823103e-07
9.414524972907579e-08
4.6046143743802895e-08
1.5536026156199092e-08
1.4667128448042418e-08
3.7023004422065e-08
5.050208076713103e-08
4.700033698882986e-08
3.375890986448078e-08
1.3351801644751752e-08
5.2867659929347595e-09
1.2648132866835903e-08
2.9721300582058527e-08
3.6227764314502965e-08
2.7179882303533292e-08
1.4322640496517015e-08
4.944123430927045e-09
3.2338267643460473e-09
5.848974805254198e-09
9.95122877427898e-09
1.4095788739103648e-08
1.4198244494911796e-08
7.602214639523553e-09
3.515233557066095e-09
2.546791034585383e-09
6.369562286481614e-09
1.2532144237415003e-08
1.654629103277013e-08
1.2014744763475855e-08
2.785835873395135e-09
1.2058524441947541e-09
3.317659507557833e-09
5.166036585694898e-09
6.313563826903819e-09
6.234492079935098e-09
4.631884387460764e-09
2.561099427467295e-09
1.7450939386823859e-09
9.701321336496241e-09
1.9687185970818275e-08
2.5701192960517344e-08
2.2981304865161845e-08
1.4485503182049774e-08
7.526411741829458e-09
2.236511403073343e-09
4.896586716266478e-10
1.2918307778790184e-10
1.5317234255624285e-11
1.9587170330903433e-08
1.217969602474043e-07
3.596645845626888e-07
3.4485241475477215e-07
1.2839434648700923e-07
1.801941301458574e-08
3.6877621432871514e-07
8.948777402644978e-07
1.1732202301286924e-06
7.984841516114171e-07
1.1533381014982021e-07
9.31421194187979e-08
1.0073322130523487e-06
2.3039275345773082e-06
2.6920981543697874e-06
2.005917368088685e-06
6.442557687345872e-07
4.180161412606335e-09
8.07332276665468e-07
2.5778959511765582e-06
3.8026215678849324e-06
3.6780559059399944e-06
2.3244841750319567e-06
8.396553172740998e-07
4.319108114052988e-07
1.138046669791169e-06
2.5084732613882868e-06
3.63740816658324e-06
4.0145286103779525e-06
3.409832188884912e-06
2.5005119998353994e-06
1.358079134571279e-06
1.0593642572373302e-06
1.60771561386234e-06
3.1094487789774836e-06
4.334317075383713e-06
4.617764590258135e-06
3.846699028480235e-06
2.407291715457501e-06
1.5470615649141411e-06
1.750956917869915e-06
2.8131704112530447e-06
4.08319488170259e-06
4.637919165379297e-06
4.3757169172136655e-06
4.231587709265762e-06
3.9430687201185715e-06
3.88523871691247e-06
3.755429584446739e-06
3.661042287962e-06
3.6202285001361387e-06
4.158908145263829e-06
5.194570686005505e-06
6.536903527677078e-06
6.2858483812829404e-06
5.2043780182934725e-06
3.692642864393892e-06
3.2343773749084778e-06
3.857629252297954e-06
4.828672788028259e-06
5.000322557934703e-06
4.547780821509785e-06
3.949414364354048e-06
4.492259172626468e-06
5.638647780282076e-06
6.169002431541862e-06
5.346070360360351e-06
3.3172862295374957e-06
2.0563330350120027e-06
2.7233477012042315e-06
4.671251796718067e-06
6.824449446445176e-06
7.620128526844024e-06
6.882854119729518e-06
5.076023657377911e-06
3.217342048422391e-06
2.8067114624438673e-06
3.680350234100659e-06
4.637528424770879e-06
4.367077442322193e-06
3.4414357748674746e-06
3.219120634538229e-06
4.435088782209322e-06
6.316327889006774e-06
6.507023522615338e-06
4.982770411528445e-06
2.817538796097534e-06
1.3167633174238661e-06
1.4573470856734092e-06
2.7241530522327368e-06
3.827296093695817e-06
4.488612678683259e-06
4.109975294428119e-06
3.1657147625736065e-06
1.96336236699706e-06
1.2687087773576425e-06
1.6166412025779444e-06
2.7948499020358793e-06
3.465006999360264e-06
2.9154723956921015e-06
1.7066975390103331e-06
1.272418393397305e-06
1.9340653807448863e-06
2.837530337907336e-06
2.4407670378953678e-06
1.593331450946274e-06
1.4090836075165274e-06
2.015792338170853e-06
2.1416145854876333e-06
1.2608358674704235e-06
4.588477159184626e-07
1.268307560159866e-06
3.048517212239167e-06
3.6643070080761036e-06
2.224609668817362e-06
4.7017986810910403e-07
1.6185593978848858e-07
1.060448470388531e-06
1.5779304990552053e-06
7.276940704550399e-07
1.6224452528206862e-25
1.491798944214259e-26
1.0296538413479722e-27
4.276183362848788e-28
9.037526963342325e-10
1.8308710805445129e-09
1.4097582730243686e-09
1.563933778887218e-10
9.833486401770773e-10
2.421388827154373e-09
3.5393000312828176e-09
5.217914725108157e-09
3.4831679082637215e-09
9.496427007542416e-10
3.419173842254885e-09
3.612705522692593e-09
6.521237448466209e-10
3.915503353060952e-10
4.327971243228004e-09
1.1092487934503582e-08
1.3541215148440533e-08
8.340429829980966e-09
3.3425607469310854e-09
1.190460279645267e-09
4.030982912071478e-10
5.60589474113843e-10
8.847511883332821e-10
5.386766139187235e-09
1.3314056462874932e-08
1.3654720909136077e-08
9.192572575630956e-09
4.146483198489511e-09
1.1591260091071112e-09
9.302528497572075e-11
2.113149957802773e-11
3.828666546878575e-10
2.8640068265823673e-09
9.577970380425947e-09
1.8702026331130388e-08
1.9684013832764158e-08
1.4894625129934576e-08
6.4209488301076565e-09
8.075046899861755e-10
5.966308399437969e-10
5.081617141234006e-09
1.4359874690973015e-08
3.271049593839487e-08
4.1599418571687406e-08
4.0076315109826986e-08
2.3649972236478726e-08
4.141937584061534e-09
4.623451896723895e-09
2.985245933431034e-08
4.839036618768848e-08
5.7713429294454106e-08
5.3540801444006825e-08
3.9994765985697306e-08
1.1814842234033034e-08
1.1928487423873624e-09
1.6409526663652402e-08
4.6606145027719256e-08
6.99518350564457e-08
6.668452151278991e-08
4.0053468473295784e-08
1.197354207808084e-08
9.59705920381053e-10
1.7689462402744794e-09
1.4507697781188081e-08
3.7631147495695094e-08
4.9406251949017424e-08
5.270568577418857e-08
4.004811012751065e-08
2.0737771218830432e-08
7.655866627409478e-09
1.2033121892737947e-08
3.059479562136642e-08
4.821771296063553e-08
6.220561404092007e-08
6.967057863407184e-08
5.181238084027946e-08
3.617156174698733e-08
3.575352574995819e-08
4.660526752778906e-08
6.755352227122453e-08
9.063153513467987e-08
9.235204841186893e-08
7.471669093997472e-08
6.504572499013223e-08
4.900658898928258e-08
4.07461113062972e-08
6.481973487112171e-08
9.830188120983167e-08
1.3288488789832895e-07
1.4781303763566226e-07
1.1365204594482415e-07
7.222038616388319e-08
5.47646121060047e-08
6.98035110850615e-08
1.067451261254694e-07
1.429064284211328e-07
1.435117051559095e-07
1.0371962038098419e-07
6.011339304966384e-08
4.188552623294003e-08
6.926662682756318e-08
1.2638888900002364e-07
1.4841424903089973e-07
1.1560923629533051e-07
6.849634063646446e-08
2.2356560976580663e-08
1.8795036370053318e-08
5.3655554160486443e-08
8.382244362104863e-08
1.0911037485461057e-07
9.713691487096013e-08
5.061507082800681e-08
1.5204414619295528e-08
1.880980560160745e-08
5.258977214214014e-08
1.0117684365550491e-07
1.2372452156107525e-07
1.0837170679551045e-07
6.544405534683527e-08
3.693996706260808e-08
6.420834941714424e-08
1.4768634123070238e-07
2.1224204234385006e-07
2.0218387390041034e-07
1.4335351681260293e-07
9.201331573420462e-08
1.0322190905961346e-07
1.8125438268981164e-07
2.7292240512578707e-07
2.8841864928136545e-07
2.1238043468825041e-07
1.5434453961918814e-07
1.8253887457998433e-07
2.475595290288254e-07
2.958041193645362e-07
2.7378401025250777e-07
1.8421940132074487e-07
1.4219195814062188e-07
1.7184783492488366e-07
2.2765285563210404e-07
2.513780218062469e-07
1.8366779568958175e-07
1.098648060275779e-07
8.954141367300366e-08
1.0785019559531172e-07
1.3725160801319124e-07
1.3870422974275565e-07
9.697570426799455e-08
5.80783852287421e-08
4.532111080413279e-08
6.147714526447799e-08
6.883112226493225e-08
6.18758142002199e-08
5.25392831983412e-08
3.8521572442867036e-08
3.709506619021713e-08
3.865635202592131e-08
4.4608132638693746e-08
5.708094903822966e-08
6.922002023635183e-08
7.664584765862832e-08
7.523449489185923e-08
8.677970444189517e-08
9.255347396274644e-08
8.945336552517483e-08
9.964063716734051e-08
1.1640582688672806e-07
1.397226940723446e-07
1.4063059847361075e-07
1.2130718308441172e-07
9.07477271943229e-08
8.256792837208065e-08
1.42840484091319e-07
2.1928387998759174e-07
2.4693380456158526e-07
1.9867678256555183e-07
1.2600344004924025e-07
1.380339155801057e-07
2.345079461957725e-07
3.72587195044137e-07
4.080962264314396e-07
3.1908607178565866e-07
2.3567234332255512e-07
2.211383164375063e-07
3.230129311135157e-07
4.5786918107377064e-07
5.532373301053992e-07
5.375243326565659e-07
4.550702236709293e-07
4.348807410958931e-07
4.972796332903376e-07
6.391222119950575e-07
7.593173110049791e-07
8.427058331012459e-07
8.620045829312726e-07
7.87475725102256e-07
7.251892488590204e-07
6.828262487806965e-07
7.294068694463374e-07
8.634333606148275e-07
9.856314939646614e-07
9.907873742727722e-07
8.632525525489607e-07
7.582583963539417e-07
7.142942885001394e-07
7.786296816590391e-07
9.27217183716153e-07
1.0748530838331783e-06
1.1196148276307807e-06
9.851578187277531e-07
7.900081204345322e-07
6.143647054619564e-07
5.976495932399539e-07
7.359415301205706e-07
8.847983977604902e-07
8.834194587256731e-07
6.558960928554734e-07
4.046991018562287e-07
2.579050542869996e-07
3.1208316880749327e-07
5.052331323190699e-07
6.657604030974505e-07
6.47301297762274e-07
4.149443188111334e-07
1.9844604839514838e-07
1.4345603172389833e-07
2.8224192512651005e-07
4.507926243855624e-07
5.006427817540369e-07
3.984695544893205e-07
1.8796527197640427e-07
5.393964991495486e-08
5.2642554873066214e-08
1.5362594638657132e-07
2.2531537943161938e-07
2.155501438733848e-07
1.524811063890111e-07
5.719303343663209e-08
2.1344200070178496e-08
5.8876152886807986e-08
1.428204844038468e-07
1.793518387963666e-07
1.3528225517988368e-07
6.885236547982671e-08
1.979282425394559e-08
9.705080469048702e-09
2.5465352055508997e-08
4.983663309802728e-08
6.939078322407457e-08
6.408966008279933e-08
3.011294557059498e-08
1.0451883369780831e-08
1.1068870777113181e-08
3.717828807491596e-08
6.885053397645757e-08
8.50417879715041e-08
6.097605689641357e-08
1.5931970382738154e-08
7.940258583305422e-09
1.8936357379759856e-08
2.809219820698659e-08
3.052301150839919e-08
2.6547938503263405e-08
1.659255614099246e-08
7.912347698800767e-09
9.639691056269467e-09
4.924839266704193e-08
9.787603105221181e-08
1.2326952508906092e-07
1.0700823583048155e-07
6.801002453996916e-08
3.4734248499716945e-08
1.091776219248004e-08
3.2606509737135416e-09
7.935919732351598e-10
3.250449693125134e-11
4.535444331942716e-08
2.941775828616814e-07
8.873847036407607e-07
9.188606845537198e-07
4.214694383293586e-07
3.1664594083313786e-08
5.550348264623105e-07
1.59257953067843e-06
2.2639177753742033e-06
1.6843299915142237e-06
3.233712886444062e-07
8.221647793628376e-08
1.5599624864230813e-06
3.9065473240194715e-06
4.698439897548948e-06
3.602263896431139e-06
1.2055057393039778e-06
4.605499210992493e-08
1.4042881601005639e-06
4.469782094960643e-06
6.540637563818455e-06
6.239385558956213e-06
3.963876241719254e-06
1.5913479526274267e-06
1.1801124248030432e-06
2.4664756789496473e-06
4.672835572521814e-06
6.244130977365246e-06
6.671833850496296e-06
5.726171019346765e-06
4.53947515686696e-06
2.923873026592861e-06
2.5119815994141615e-06
3.1798597497107863e-06
5.472501478528524e-06
7.394193499000247e-06
7.910792489988862e-06
6.8370172277049074e-06
4.608025001348858e-06
3.2686914297620043e-06
3.6731739927000413e-06
5.495393460615827e-06
7.611561943927998e-06
8.478082607137e-06
7.883703387322248e-06
7.686966050887252e-06
7.370952056312222e-06
7.6202604642250874e-06
7.610508101534321e-06
7.5115667746793596e-06
7.214555998036295e-06
7.801437786460331e-06
9.441061808874177e-06
1.1941066484279587e-05
1.159862741460178e-05
9.81311456235425e-06
7.16127418519289e-06
6.449704590321461e-06
7.714807412572286e-06
9.641537970206107e-06
9.98244460317511e-06
9.01193632996333e-06
7.5467620551482236e-06
8.160939065241727e-06
1.0066913211208777e-05
1.1221745765095924e-05
1.0192159816028551e-05
6.94414825334686e-06
4.903059110768806e-06
5.944164190074438e-06
8.966057418108986e-06
1.2265829599879622e-05
1.3413435193244702e-05
1.2187782712817834e-05
9.366045302853542e-06
6.4575742049006135e-06
6.110186599083777e-06
7.943564900364293e-06
9.7480291217026e-06
9.064749459606517e-06
6.9821535281386074e-06
6.19730659936685e-06
8.148755602418615e-06
1.1488642194309736e-05
1.1866355087078181e-05
9.295921266425124e-06
5.691005852431326e-06
3.2799385297366506e-06
3.578916566423346e-06
5.546860249401286e-06
7.031763439399616e-06
7.908138411728355e-06
7.3116731734467944e-06
5.976395004435564e-06
4.118950584821962e-06
2.934964496322895e-06
3.497377365042915e-06
5.595291676235351e-06
6.803275787247489e-06
5.789669641657521e-06
3.555650332075939e-06
2.8570992278574095e-06
4.16279697400638e-06
5.79791389758305e-06
4.725670603683655e-06
2.9306848491149552e-06
2.761155199415322e-06
4.362465019065696e-06
4.883081071769505e-06
3.0158509291196552e-06
9.963316161679736e-07
2.216449654193901e-06
5.541108911430266e-06
6.748491362879602e-06
4.010689806525669e-06
7.793069195995561e-07
4.890446803306002e-07
2.5009601202910833e-06
3.5183619424618086e-06
1.5961287511284179e-06
3.517692666765946e-25
3.239079372160765e-26
2.20447595204374e-27
9.62933661844267e-28
2.3062661803966013e-09
4.094640729998651e-09
3.0249345914917956e-09
4.3174737488920115e-10
1.467414386958853e-09
3.725490639698138e-09
5.689881914630302e-09
8.235748319524711e-09
4.856906676598511e-09