# vtk DataFile Version 4.1 
COMMENT
ASCII
DATASET STRUCTURED_POINTS 
DIMENSIONS 400 400 1 
ORIGIN 0 0 0
SPACING 0.002506265664160401 0.002506265664160401 0 
POINT_DATA 160000
SCALARS U double 1
LOOKUP_TABLE default
1.232448190607171e-06
1.1384720128279922e-10
5.248484761165877e-10
9.480372746299385e-10
1.223018946764251e-09
1.1964425040640594e-09
9.5847815434003e-10
6.878981082392684e-10
5.063563688217977e-10
4.0707330678111695e-10
3.421914776844878e-10
1.355485409984354e-10
5.615140476042749e-12
1.7726540538734157e-10
6.998737269691897e-10
1.1250573678593727e-09
1.3969552697323567e-09
1.0649047865147849e-09
5.571976929463982e-10
4.021762596183988e-10
6.974443501585692e-10
1.339485504924929e-09
2.176113136423934e-09
2.678579936989233e-09
2.632927586565633e-09
2.0957861099052242e-09
1.389727734079717e-09
7.348692771633254e-10
3.270438095492888e-10
2.0095296712510766e-10
2.5978025436320494e-10
4.770201682178102e-10
7.365752274005388e-10
1.020842441269227e-09
1.2235926628511265e-09
1.4492719559156685e-09
1.5683552132523283e-09
1.4577769801320376e-09
1.005327900016973e-09
3.6668323699800577e-10
8.927022931545497e-11
4.0840988437360346e-10
9.43341318426778e-10
1.1601614059844502e-09
7.204102065054077e-10
2.4340997411123474e-10
4.383810735161157e-11
1.3878049625785144e-10
2.4165052222072065e-10
2.0872296428318982e-10
4.4809481545109115e-10
1.6085019817011843e-09
3.312912232218391e-09
4.538434412943156e-09
4.585504561461747e-09
3.0243758061927184e-09
1.2021673803232695e-09
4.0024859699335166e-10
8.319828726416795e-10
1.8615556405187011e-09
2.2382072117133814e-09
1.5789176867564863e-09
6.377322484068826e-10
4.914107210588902e-11
6.362649763262708e-10
2.042815862041235e-09
3.2780362773223886e-09
3.462089209087502e-09
2.6086316686206996e-09
1.2660768412581159e-09
5.116384662187772e-10
8.733277786938905e-10
1.782739818210273e-09
2.7318808954306433e-09
2.78122054025767e-09
2.3089230652268545e-09
1.707679732537999e-09
1.1992968831510855e-09
1.0455566940719721e-09
1.0599931969956287e-09
1.3672784274478243e-09
1.893689288472049e-09
2.081042372423632e-09
2.099954814841686e-09
1.3764547561998519e-09
5.527858266037686e-10
3.732016757849382e-11
2.9509591621549863e-10
1.2499153451341193e-09
2.395430194676242e-09
2.7664552803604548e-09
2.2692218153240042e-09
9.553804388620786e-10
7.235145664803304e-11
3.212161685710771e-10
1.466361680031293e-09
2.07186740944681e-09
1.6129361247990923e-09
6.228993051503535e-10
5.835155420311456e-11
4.359922106477221e-10
1.0600609440764666e-09
9.974183328908404e-10
9.22484811552944e-10
1.8238748093993636e-09
3.8835470268723905e-09
5.4611394640554925e-09
4.344286547806377e-09
1.5625435279170805e-09
2.7167632459041367e-10
3.106550717632318e-09
8.478565608361443e-09
1.2226230589850322e-08
1.0525623301500047e-08
5.641806591408779e-09
1.2112202942878486e-09
3.810091345247761e-10
1.6028620296240236e-09
2.0951478107982985e-09
1.005446586716538e-09
3.0810825760213305e-28
4.322321639673335e-29
1.7614909565966093e-29
3.4297559089007364e-28
1.1016864136205407e-09
2.1292631970880214e-09
1.5174184600355972e-09
2.40898526888096e-10
3.180559451230298e-10
1.5689759960600313e-09
2.0250647277813306e-09
1.0259558515107002e-09
3.275932191833026e-10
1.2156927808305964e-09
2.336989394923928e-09
2.19845126839428e-09
1.2804749360737695e-09
1.1541632189008605e-09
1.8767133020466264e-09
1.81114272611688e-09
6.400514811494666e-10
9.71782359361765e-12
9.47566964389075e-10
2.157358779985489e-09
1.9138201461170165e-09
6.334758117555831e-10
2.956644491792884e-10
1.3675489188372478e-09
2.3372569662824963e-09
2.3672262823072994e-09
2.3520360731858912e-09
3.272628031613013e-09
4.1415843791502615e-09
3.6123926316271723e-09
2.0195729989875537e-09
1.0904909830918103e-09
1.5745069905861133e-09
2.252889670740226e-09
1.907763845192803e-09
9.608933581074654e-10
4.812365615135034e-10
8.689071226602014e-10
1.5212354083805117e-09
2.2475613756676924e-09
3.1987694203679676e-09
3.845779951270241e-09
3.810136599973157e-09
2.7483386590101616e-09
2.4281355713685238e-09
3.745342992869051e-09
6.07045990394612e-09
7.121305882962722e-09
5.662295222146895e-09
2.9850931450033914e-09
1.0686358150816396e-09
9.917813774354543e-10
1.6233560093138207e-09
1.8587310337187855e-09
1.3421206922744744e-09
1.0233809543565915e-09
1.327686323867979e-09
2.253221792778882e-09
3.5374584344522146e-09
4.427546172180737e-09
4.9402934637722e-09
4.452786100209709e-09
3.643008004396114e-09
3.7938383441861e-09
4.81829476641989e-09
6.043191921795562e-09
6.179731827961956e-09
4.573798452561667e-09
2.314610620861737e-09
9.170992741423505e-10
7.421958764236999e-10
8.217566367498364e-10
5.487224922549064e-10
1.3389105459677092e-10
1.3221033651713392e-10
6.728781664573813e-10
1.3647563420383988e-09
1.7053967483192626e-09
1.7474960834372243e-09
1.730695678984692e-09
1.8827366985403396e-09
2.2261539154474265e-09
2.9847121092760207e-09
3.787636220079928e-09
4.162610063656486e-09
3.6900954407166894e-09
2.823454025015525e-09
2.1549726794917236e-09
1.7946874863602257e-09
1.6467827615802077e-09
1.5821980622523305e-09
1.193350245139172e-09
6.528171446197143e-10
2.148330005219757e-10
3.7708309748555827e-11
3.739579392939128e-12
1.351648475751e-11
1.1921357756767056e-11
7.524061381673733e-11
2.7512134462357003e-10
7.010362403079993e-10
1.191158706210089e-09
1.4699638497922314e-09
1.4919800316623054e-09
1.4236709151337786e-09
1.6430324682086288e-09
2.1493422824241597e-09
2.8194987333431633e-09
3.134636784148907e-09
2.653198082103427e-09
1.8046117319164405e-09
9.386531362957965e-10
5.419382325378916e-10
6.989106664804827e-10
1.0050396773770395e-09
1.0920384618037178e-09
8.231125578251587e-10
4.3747360918314797e-10
1.5333350685134361e-10
9.456090178247328e-11
2.1388035037449555e-10
3.9747318708944163e-10
6.617305429189555e-10
9.302903829553016e-10
1.200935185259922e-09
1.37637664915946e-09
1.2719328679155273e-09
1.0211699676094271e-09
8.907566212675477e-10
8.580689726213488e-10
1.0286692752478708e-09
1.2017065571417855e-09
1.174192552415758e-09
8.877275288051716e-10
6.146152231553641e-10
3.7839301260783406e-10
2.31552423589769e-10
1.0696717207037343e-10
4.625992177634422e-11
5.41398973135243e-11
1.0882638267374621e-10
2.8390478380446023e-10
4.935955123767217e-10
5.854046498398617e-10
4.914273202687984e-10
2.727067877926836e-10
1.7548641537322801e-10
4.2829540761384727e-10
8.93761223577844e-10
1.4006306566071121e-09
1.6091187057763384e-09
1.4651543680835066e-09
1.0262656556648714e-09
5.836582703308103e-10
4.560529512640484e-10
5.709810256910385e-10
6.334510712566556e-10
4.706897177715475e-10
1.4680375483918505e-10
3.683255159281509e-12
1.0395319167987542e-10
3.022755762207486e-10
3.796172348361364e-10
2.4492698091304516e-10
9.669133428322692e-11
8.434322348363748e-11
2.8791642055562415e-10
5.983892853317e-10
8.767535765249815e-10
8.938256569343309e-10
7.659623732478997e-10
5.129659659344116e-10
3.1534517821030953e-10
1.6906756586465239e-10
1.445974083847746e-10
1.85334081776897e-10
2.9268608013069584e-10
3.3617741816063746e-10
3.348041088868865e-10
3.8677328176839224e-10
4.4314588998006056e-10
4.77684066114986e-10
4.408522719253782e-10
3.4840590746523645e-10
2.1179286125610054e-10
9.52592148649159e-11
3.997013443211881e-11
4.835911977872969e-11
1.3899059879619779e-10
2.0532749364138612e-10
2.464344426180855e-10
2.1038847274086742e-10
1.1074740856189504e-10
5.190026989775929e-11
2.6261964820119487e-11
5.736202830377527e-11
1.23329724904124e-10
1.481633422437916e-10
1.929358400460897e-10
2.271860693928672e-10
2.2467074020061154e-10
1.8054772019615315e-10
9.646156405053107e-11
2.547941651507102e-11
1.4523208505848787e-11
4.817499104421176e-11
9.935050076828764e-11
1.6485162069150095e-10
2.5112065346810445e-10
3.04192335822816e-10
3.786817277872832e-10
4.140555300769101e-10
3.4427396883170897e-10
2.368346366150598e-10
1.0822542632680846e-10
1.2673641463010626e-10
3.326466416555819e-10
5.850528581368782e-10
6.19435534534695e-10
4.547133241327288e-10
1.7786338206606776e-10
1.8508383308760502e-11
2.45159240590835e-11
8.169497928152139e-11
1.030108084953051e-10
1.5369029540063054e-10
2.5758897903673064e-10
3.763890904016055e-10
3.550464397992704e-10
2.1965544552163366e-10
6.809844830624122e-11
3.196884335846164e-11
1.1438710916767039e-10
1.934466674349217e-10
2.0266723593911185e-10
1.5328867652156494e-10
1.5082471003118178e-10
1.651328583942469e-10
1.1335613806675799e-10
2.0825062930083063e-11
7.292272404964202e-11
2.3703133657952326e-10
3.799557923580441e-10
2.797449908576594e-10
1.2087519732163586e-10
6.833982517997766e-11
2.648099498553415e-10
4.75510231775699e-10
4.655135214958248e-10
2.919118868022674e-10
9.45855103345175e-11
2.0851963242145447e-11
4.635938073243779e-11
5.508040527598443e-11
5.6952255781207495e-11
4.501769071912337e-11
3.398535447680408e-11
1.8296726438835433e-11
1.5134428664821315e-11
1.525173327556082e-10
3.500772851167615e-10
4.5936802974107375e-10
4.225204079224903e-10
2.2132078249460698e-10
8.128229201496704e-11
1.0907037450041957e-10
2.2421151849126353e-10
2.948352110374794e-10
2.8077987955704945e-10
2.2316904442196262e-10
1.4925107697543296e-10
9.11637607666326e-11
6.402716670739919e-11
2.6126419909042188e-11
6.689258367583575e-12
6.967108595256245e-31
1.0702389190792331e-10
7.187051529952072e-10
3.313312054019418e-09
5.984857482930622e-09
7.720787242426853e-09
7.553013014323844e-09
6.050769635051129e-09
4.342626867911541e-09
3.196573366965599e-09
2.5698100606236893e-09
2.1602180427077693e-09
8.557033796075972e-10
3.5447778684513135e-11
1.1190574635488684e-09
4.4182276626128575e-09
7.102366317176405e-09
8.8188285662508e-09
6.722629532335036e-09
3.5175291851300166e-09
2.5388955278934255e-09
4.4028912677547815e-09
8.456028114038356e-09
1.373756848676034e-08
1.6909587427114016e-08
1.662138904255924e-08
1.3230472596538385e-08
8.773201910009109e-09
4.639150812001051e-09
2.064592440831215e-09
1.2685944964403108e-09
1.639964841941615e-09
3.0113770836506183e-09
4.649920292606843e-09
6.444468679681551e-09
7.724409050458565e-09
9.149098186618366e-09
9.900857999059557e-09
9.202789490943619e-09
6.346527047224079e-09
2.314831888513421e-09
5.635533688589222e-10
2.578247731398852e-09
5.955212415828204e-09
7.323974339219592e-09
4.547872252034051e-09
1.5366210210966819e-09
2.7674526291513283e-10
8.761063660053242e-10
1.5255137903003927e-09
1.3176456538982805e-09
2.828774438601793e-09
1.015430023598047e-08
2.0914059071173237e-08
2.8650648960712213e-08
2.8947797752350295e-08
1.9092559606321635e-08
7.589153543220412e-09
2.526726400798099e-09
5.252218508964548e-09
1.175180080276795e-08
1.4129561714333352e-08
9.967537759741209e-09
4.02593518327003e-09
3.102223097999648e-10
4.016672452229658e-09
1.2896077111481922e-08
2.0693890914056042e-08
2.1855797302557196e-08
1.6468011522277504e-08
7.992607105376263e-09
3.2299186804652406e-09
5.513224459879533e-09
1.125424498240208e-08
1.7246070652523018e-08
1.7557546530582164e-08
1.4575983301741014e-08
1.0780398724004197e-08
7.571032402901977e-09
6.600487102985935e-09
6.691623195270621e-09
8.631481848595984e-09
1.1954657070716408e-08
1.3137396965490522e-08
1.3256789183027933e-08
8.689411026347821e-09
3.4896775468021002e-09
2.3559820924083326e-10
1.8629088218435145e-09
7.890581316305038e-09
1.512209351793912e-08
1.7464335030836282e-08
1.432535357554642e-08
6.031214089974649e-09
4.5674697431062015e-10
2.027803169301888e-09
9.256983779296704e-09
1.3079476409730862e-08
1.0182292505071637e-08
3.932296405746881e-09
3.683670939515119e-10
2.752371994458794e-09
6.692050875315012e-09
6.296594799549475e-09
5.823547528199827e-09
1.1513925763333829e-08
2.4516415236059962e-08
3.4475586837593835e-08
2.742501434216579e-08
9.864169453790408e-09
1.715063455489874e-09
1.9611320995561768e-08
5.352427397491039e-08
7.718288045400255e-08
6.644712931048095e-08
3.561611900652353e-08
7.646303616675475e-09
2.4052697408080545e-09
1.0118695824323195e-08
1.322644308283817e-08
6.347276303609906e-09
1.9450543353188625e-27
2.728635223644506e-28
1.1120103201445272e-28
2.165168065150449e-27
6.954827993417879e-09
1.3441809852039116e-08
9.579299747286869e-09
1.520766524539831e-09
2.007853018124382e-09
9.904776934244253e-09
1.2784016107606979e-08
6.476749089287722e-09
2.0680608048368446e-09
7.674537943815323e-09
1.4753163026421666e-08
1.3878586714476756e-08
8.08350073140067e-09
7.286108428445933e-09
1.1847489491859362e-08
1.1433549489166542e-08
4.04057625045753e-09
6.13475765230483e-11
5.981888464897621e-09
1.3619174249031672e-08
1.2081741012707318e-08
3.9990647558882644e-09
1.866497909375919e-09
8.633189431683043e-09
1.4754852175667585e-08
1.4944045248629163e-08
1.484815109007614e-08
2.0659749239810245e-08
2.6145377324347717e-08
2.280464666446416e-08
1.2749347413616556e-08
6.884152443028096e-09
9.939693508585056e-09
1.4222250501078505e-08
1.20435082355e-08
6.06601655700995e-09
3.037994721629629e-09
5.485317333176089e-09
9.60339573219731e-09
1.4188613546615336e-08
2.019348776041713e-08
2.427799574446965e-08
2.4052983096300997e-08
1.7349966746217897e-08
1.5328559048005188e-08
2.3643948014347653e-08
3.8322161325506734e-08
4.495603911620858e-08
3.574546153162191e-08
1.884457238571352e-08
6.7461831149155125e-09
6.261009305243592e-09
1.0248072116778978e-08
1.1733969363440411e-08
8.472663768721875e-09
6.460494040132025e-09
8.381541151414757e-09
1.4224347151834218e-08
2.2331595126627734e-08
2.7950623407650463e-08
3.118754198359088e-08
2.8109960362193514e-08
2.2997918224256402e-08
2.395009395816668e-08
3.0417377311487914e-08
3.8150021483134084e-08
3.901198324456121e-08
2.8873898344255814e-08
1.4611888229544937e-08
5.789549209005073e-09
4.685402846157622e-09
5.187661380213042e-09
3.464026153513868e-09
8.45239845989966e-10
8.346296532846863e-10
4.247807588783936e-09
8.615560194311791e-09
1.076598648985417e-08
1.1031755070425529e-08
1.0925695921703499e-08
1.1885514546931308e-08
1.4053470549690655e-08
1.8842166948094934e-08
2.3910940614875003e-08
2.627811021219745e-08
2.329517615193146e-08
1.782416198342073e-08
1.3604111052913455e-08
1.132966932809432e-08
1.0395962687492009e-08
9.988246417890531e-09
7.533491915880754e-09
4.121164512743218e-09
1.3562176563746064e-09
2.38048509068805e-10
2.3607563027077316e-11
8.53281164239856e-11
7.525825100614374e-11
4.749859131827569e-10
1.7368114969182346e-09
4.425566484451374e-09
7.519656966021871e-09
9.279723890076586e-09
9.41870968139171e-09
8.987481566054456e-09
1.0372287488268604e-08
1.356856696100543e-08
1.7799192651944022e-08
1.9788625316664027e-08
1.6749354503568595e-08
1.1392320024294774e-08
5.925616425608408e-09
3.4211978506400487e-09
4.412147965193151e-09
6.344707528657121e-09
6.8939215099165805e-09
5.196221164317602e-09
2.7617239042910377e-09
9.679779586952095e-10
5.969528158546421e-10
1.3502036783208558e-09
2.50920553619064e-09
4.177433838788839e-09
5.87282326204076e-09
7.581374828139633e-09
8.68891794499156e-09
8.02957557264938e-09
6.446536318286551e-09
5.6232508709576075e-09
5.416897256142225e-09
6.493878641882694e-09
7.586244415974237e-09
7.412551459508756e-09
5.6041285356074334e-09
3.879999885933065e-09
2.3887544441526758e-09
1.4617655783132503e-09
6.752722675837763e-10
2.920339172434009e-10
3.417793563954759e-10
6.8700926441893e-10
1.7922604050090442e-09
3.116015450913482e-09
3.695596674196247e-09
3.1023278870288225e-09
1.7215686590003546e-09
1.1078268906769502e-09
2.7037829036449218e-09
5.642218602608273e-09
8.842030888805714e-09
1.0158193548822553e-08
9.249362148651688e-09
6.4787048496359205e-09
3.684571967939985e-09
2.879013295179397e-09
3.6045418842337343e-09
3.998908571775995e-09
2.9714136299579077e-09
9.267563356246363e-10
2.3251994189968333e-11
6.562453331201293e-10
1.9082332442657134e-09
2.396482827582204e-09
1.5461977220898113e-09
6.104020073951236e-10
5.324497102685931e-10
1.8175854369160164e-09
3.777567283333731e-09
5.534851153610973e-09
5.642625363466774e-09
4.835438187771043e-09
3.238299043578921e-09
1.9907402377767874e-09
1.067305383199093e-09
9.12827907448888e-10
1.1699941509130083e-09
1.8476957854885892e-09
2.122251930923656e-09
2.1135823769901415e-09
2.44165818321095e-09
2.797532403683572e-09
3.0155681997640273e-09
2.783053039269437e-09
2.1994490704012505e-09
1.337025583740514e-09
6.013611913359929e-10
2.523271653460943e-10
3.052859287506846e-10
8.774327207620986e-10
1.2962104124552658e-09
1.5557141659123006e-09
1.3281598298938468e-09
6.991364945070918e-10
3.276408290855132e-10
1.6578896302521955e-10
3.6212032323722113e-10
7.785673060675164e-10
9.353392648721532e-10
1.2179832343365126e-09
1.4342012532727035e-09
1.4183222502617925e-09
1.1397783643726452e-09
6.089514925964929e-10
1.6084881963154112e-10
9.168345531173259e-11
3.0412354382754697e-10
6.271890397854756e-10
1.0406905741695543e-09
1.5852977116471178e-09
1.920333541748099e-09
2.3905770720686896e-09
2.613888086306415e-09
2.1733645856329397e-09
1.495111621762001e-09
6.83215491551414e-10
8.000733723838711e-10
2.0999625180995814e-09
3.693375850962419e-09
3.9104299939052486e-09
2.870556372993141e-09
1.1228324260910211e-09
1.1684143578175445e-10
1.547663952487921e-10
5.157316290772719e-10
6.502961693004206e-10
9.70230326483024e-10
1.6261315561776881e-09
2.376103898512643e-09
2.2413700377445434e-09
1.3866612336627356e-09
4.298981894785314e-10
2.0181587424314123e-10
7.221135334791138e-10
1.2212080327725558e-09
1.279416491327856e-09
9.676949496386901e-10
9.52140193847662e-10
1.04246599757832e-09
7.156051236590576e-10
1.3146638538897043e-10
4.603533240552634e-10
1.4963533675094667e-09
2.398620104852428e-09
1.7660000789529608e-09
7.630721370881657e-10
4.314219757553441e-10
1.671716769327304e-09
3.00184501707882e-09
2.9387368588615722e-09
1.8428083861648776e-09
5.971081670004118e-10
1.3163620416956906e-10
2.926617909500053e-10
3.4771668213942657e-10
3.595334733172679e-10
2.841918460112976e-10
2.1454589233313182e-10
1.1550526869667951e-10
9.55420225221545e-11
9.628255392967811e-10
2.210000297987146e-09
2.899941029521352e-09
2.667325950905136e-09
1.3971743270937835e-09
5.13126378691614e-10
6.885495586127527e-10
1.415423232937196e-09
1.861263018057881e-09
1.7725332201514038e-09
1.408842206113275e-09
9.422060173958332e-10
5.755070295197526e-10
4.0419662605481624e-10
1.6493328256091416e-10
4.222856955926757e-11
3.688717831784244e-12
3.3962512218996695e-10
2.1201671999434006e-09
1.0071400711269335e-08
1.775781837553347e-08
2.2907458101142998e-08
2.2904971746830554e-08
1.7735274567737985e-08
1.1903363550777297e-08
9.93961520460248e-09
8.277505017626578e-09
8.63267512682407e-09
4.0010443173133805e-09
1.6028193966549284e-10
2.495726650075265e-09
1.2859539052095975e-08
2.2292733399489634e-08
2.9520420667386924e-08
2.3107390325953172e-08
1.3373476030670472e-08
9.662776570530888e-09
1.5102100806200332e-08
2.732894584099142e-08
4.3048917795847296e-08
5.2586220602951175e-08
4.937572162188395e-08
3.8199375996062664e-08
2.5027289893133026e-08
1.1227286857412597e-08
4.901997900238213e-09
2.103874614894783e-09
3.434520455625225e-09
7.869064167256108e-09
1.3181783416947078e-08
1.7665200308525098e-08
2.109838556837764e-08
2.4828712148376142e-08
2.9173221305122007e-08
2.9664657683925568e-08
2.0883703590661043e-08
7.0852983963929104e-09
1.3558788651284892e-09
8.61920910565856e-09
2.0146681397009037e-08
2.456421049775306e-08
1.4258789694988716e-08
3.3681289010319567e-09
4.837054596681277e-10
4.276643632374091e-09
7.075177872000181e-09
4.733385561735757e-09
7.732719459201593e-09
3.097665115491691e-08
6.643720820214095e-08
9.205798283670888e-08
9.056809544675159e-08
5.82902434806631e-08
2.100840528681509e-08
7.972117336778655e-09
2.2013575542334597e-08
4.4514844643239224e-08
5.1619043789721326e-08
3.4398697128423776e-08
1.3303590897527433e-08
9.449921974881039e-10
1.334881361650185e-08
4.0733884359289614e-08
6.64852033402047e-08
6.757076125426143e-08
4.8959215076814335e-08
2.258635793445736e-08
8.208416098335215e-09
1.710585399446392e-08
3.5363665112498794e-08
5.1886387075187746e-08
5.24890226563457e-08
4.0360834177355544e-08
2.7466464426920813e-08
1.7699037375325994e-08
1.45018970333508e-08
1.4538842046965571e-08
2.022296565941618e-08
3.07818432159044e-08
3.6430862758456104e-08
3.8391901502735914e-08
2.682495356208407e-08
1.2696760070004875e-08
1.8581994808756406e-09
5.317597923588293e-09
2.3749681783234427e-08
4.7632480577615676e-08
5.713719421590229e-08
4.956112498548682e-08
2.260085862213631e-08
2.5402553859998265e-09
7.086959824975283e-09
3.301532369920161e-08
4.5591136479279675e-08
3.639325971560034e-08
1.2624499753819727e-08
4.957074151102265e-10
1.0797631256034838e-08
2.689059952712878e-08
2.1914004195905246e-08
1.461289564086966e-08
3.138745453820476e-08
8.184056395956382e-08
1.2461597909816057e-07
1.0710115505460568e-07
4.107231123785256e-08
3.92834682511783e-09
5.957243191762245e-08
1.7817043321425145e-07
2.589707205335996e-07
2.2156546454093576e-07
1.1166579359013037e-07
1.9248902928013272e-08
1.1971693370899211e-08
4.9961146848660356e-08
5.979372573689781e-08
2.8818868786325063e-08
6.65752674165896e-27
9.13460138737624e-28
3.3306997018987905e-28
6.720954665177146e-27
2.989702429204239e-08
5.681737374622802e-08
4.074903683325974e-08
6.446034423870266e-09
7.938342901882691e-09
4.1286918070312514e-08
5.3143465231480956e-08
2.750333007716572e-08
9.00248003299371e-09
3.223800169810584e-08
6.076513749141157e-08
5.551716819817654e-08
3.115353359829039e-08
2.9896472069519697e-08
5.2754170758588545e-08
5.332713349913108e-08
2.137104820903322e-08
2.364177315100633e-10
2.0724298940038723e-08
5.0621986650673866e-08
4.5006900989635386e-08
1.468016004258845e-08
8.856694696177438e-09
3.760320470307202e-08
5.970055678033346e-08
5.657481637019992e-08
5.4388857559919743e-08
7.87381452981926e-08
1.049456492338522e-07
9.488034657699573e-08
5.546316409192032e-08
3.081497667495551e-08
4.141508421637165e-08
5.7612459385585264e-08
4.816805478987399e-08
2.401304347618777e-08
1.2691819871488377e-08
2.170530171968879e-08
3.501625842800024e-08
4.956903226599371e-08
7.313436999934832e-08
9.347111068385518e-08
9.828511448179812e-08
7.517415316199534e-08
6.504116849024081e-08
9.406209105543852e-08
1.4799386894264912e-07
1.7375464775195527e-07
1.390033562856709e-07
7.488236753150927e-08
3.068825370364896e-08
2.842849032431116e-08
4.135961944572628e-08
4.304288259816044e-08
2.9770419991983537e-08
2.3436273354186863e-08
3.2495039264652715e-08
5.394888727392243e-08
8.223546555197447e-08
1.0442806754960834e-07
1.215503760211877e-07
1.1431741331538766e-07
9.718816758799339e-08
9.826336070966671e-08
1.2066162178661877e-07
1.4924693708363344e-07
1.4901297872827542e-07
1.111889719651365e-07
5.85984844720978e-08
2.5408400184157016e-08
2.0285633280786644e-08
2.0692655330416106e-08
1.3454179504739035e-08
2.8284662698699267e-09
2.984332053550537e-09
1.4610398421877279e-08
2.9291727838370895e-08
3.877277593249776e-08
4.3239279995270166e-08
4.5104873661520346e-08
4.892803382789401e-08
5.722347093239279e-08
7.450014922496927e-08
9.226483901548346e-08
9.946712853299194e-08
8.769688338012016e-08
6.681825379000251e-08
5.1926099806796725e-08
4.438131673821987e-08
4.1358861265338846e-08
3.9388277347915296e-08
2.9492162677065383e-08
1.7008610269815974e-08
6.897779250102442e-09
2.2119136840964105e-09
3.1786482033725006e-10
2.8277736553940937e-10
7.917625574166307e-10
3.122317002864483e-09
8.172702580177245e-09
1.801809218858375e-08
2.834491921196225e-08
3.426553419541998e-08
3.527155540171987e-08
3.3686685972982403e-08
3.743281776068458e-08
4.891247562928517e-08
6.570968794234284e-08
7.416634944437345e-08
6.492122649051362e-08
4.682185526736826e-08
2.6532277237885303e-08
1.6456707471466002e-08
1.855905820669927e-08
2.3677586089895162e-08
2.4939883665811363e-08
1.942112108562928e-08
1.0922078437421034e-08
3.956733285877868e-09
2.348119611517626e-09
4.9310336024347635e-09
8.28252536518546e-09
1.4022608424654254e-08
2.0418581656700092e-08
2.8050009991080653e-08
3.4436829539828696e-08
3.350783432724503e-08
2.785021500271924e-08
2.4312401945724798e-08
2.3062000931483593e-08
2.7153920505264375e-08
3.0806137704474264e-08
3.064264629810114e-08
2.3357822924785618e-08
1.566268698745914e-08
9.42932014551138e-09
6.288119800803018e-09
3.2805425455887876e-09
1.6846757576945123e-09
1.484799278606116e-09
2.381757355593603e-09
6.31217105839295e-09
1.0919786906534242e-08
1.3062948248449035e-08
1.1218214877298831e-08
6.574596392691093e-09
4.625041288184459e-09
1.1130631483771356e-08
2.2716384676184062e-08
3.437429261552949e-08
3.8377295071827e-08
3.388360814945156e-08
2.352178676271345e-08
1.4177971848210998e-08
1.222531541271985e-08
1.5500532866543124e-08
1.692271879598932e-08
1.290929540346952e-08
4.336096241311763e-09
1.5329973685972196e-10
1.958599862240892e-09
6.184070560326077e-09
7.914427721533491e-09
4.826942583179548e-09
2.04583756053014e-09
1.7891150215384133e-09
6.353415596582095e-09
1.3061729953743142e-08
1.821675400898672e-08
1.7874315909628338e-08
1.5195164390507693e-08
1.0352464839857853e-08
7.266238809921647e-09
4.560960669672656e-09
4.22899127030779e-09
4.716880627260733e-09
6.900317195690365e-09
7.11697530892916e-09
6.96545567003231e-09
7.690706121335186e-09
8.448376219547753e-09
9.44453721591569e-09
9.189171488369105e-09
7.427816554720589e-09
4.96086006946738e-09
2.278436928885106e-09
9.212902103705629e-10
7.929137272614014e-10
2.2929870383442346e-09
3.5805046837264656e-09
4.51202465894472e-09
4.017326650486607e-09
1.959177908598476e-09
8.072162997430621e-10
3.395595257718289e-10
9.777983238085859e-10
2.3025217030617637e-09
2.6241709789767514e-09
3.720582795262982e-09
4.864616976580724e-09
5.2057586528771935e-09
4.252888344288163e-09
2.521125499124923e-09
7.737110331907271e-10
4.075393635791005e-10
1.0448461207810809e-09
1.901129504385674e-09
2.7683624376825384e-09
4.12315452804168e-09
4.836269619480082e-09
6.437609763432055e-09
7.713741710271137e-09
6.7089856337617145e-09
4.7865712597048675e-09
1.843994928856479e-09
1.870649286282499e-09
5.745328111961325e-09
1.11050785351557e-08
1.2124228466000283e-08
8.37165450527501e-09
3.0663669743574195e-09
2.9925746598138945e-10
8.173689724311769e-10
2.1541591948465193e-09
2.410406922974189e-09
2.930679022697744e-09
4.8210044318653046e-09
7.520866296976468e-09
7.694897132975632e-09
4.706855389613706e-09
1.3136609234720165e-09
6.838973722464654e-10
2.8716121131559594e-09
4.548932072860482e-09
4.858410035669766e-09
3.444155558846906e-09
3.333084582110711e-09
3.7718192330271e-09
2.748774144963619e-09
3.4794536682035797e-10
1.259099033658184e-09
5.1762986399206475e-09
9.011318656296532e-09
6.794728633035672e-09
2.74841298235174e-09
1.0365613371345886e-09
5.513733174308605e-09
9.83157059790194e-09
9.822107127562948e-09
5.95261485980756e-09
1.5666507981059098e-09
2.0803171524054013e-10
9.173537521949972e-10
9.013764312089279e-10
9.224173912369509e-10
8.430913378223343e-10
8.510234724796026e-10
4.76092649734036e-10
1.2877448076295108e-10
2.9023732447875553e-09
7.183535965498964e-09
9.861291137050242e-09
8.993953029155307e-09
4.521466970531936e-09
1.2144119454443331e-09
1.85156261930211e-09
4.342041731540145e-09
5.982300492176777e-09
5.710135362099223e-09
4.704172432739143e-09
3.010056234810511e-09
1.8173292751885851e-09
1.360598142007023e-09
5.414569376581448e-10
1.625304015700713e-10
2.0070158943274645e-11
4.384531245453691e-10
2.8725407047738544e-09
1.3413090498854335e-08
2.3272518626244613e-08
3.0709350228670136e-08
2.9576622506589358e-08
2.1830615453172012e-08
1.5268368879582736e-08
1.4659193784637851e-08
1.516030487580851e-08
1.7968313212150108e-08
1.0183091540879605e-08
1.9335598458806662e-09
3.215900350143072e-09
1.9535895369393867e-08
3.738852002964929e-08
5.030698994786862e-08
4.193921329848513e-08
2.566874642024395e-08
1.6937083951936977e-08
2.221450277169583e-08
3.7889267426232755e-08
5.90273251536078e-08
7.105731858132975e-08
6.43053590766849e-08
4.8371442819140125e-08
2.8851654065286075e-08
1.2542716327134081e-08
4.417828203059095e-09
8.717956691994392e-10
2.227822673464065e-09
8.83600078744128e-09
1.6718150389266408e-08
2.119643264660073e-08
2.3218532782785727e-08
2.7702816462090656e-08
3.6975066700907515e-08
4.164474105200503e-08
3.0365669220446637e-08
1.0160768207292664e-08
1.1302782694755597e-09
1.3702983237611176e-08
3.3416316427061705e-08
3.895057512605358e-08
2.060443063552485e-08
2.595460628910729e-09
2.321904586419167e-09
1.474256638304215e-08
2.012752217455063e-08
9.170074065723539e-09
6.566814676675041e-09
3.9307788134381376e-08
9.917286516602244e-08
1.4123044091679427e-07
1.3697674858922143e-07
8.230458958252715e-08
2.4823436316715926e-08
1.3138403092854952e-08
4.488935028492744e-08
8.199611564678771e-08
8.927276792638173e-08
5.491484719170125e-08
1.9349129494777668e-08
1.2748044121144355e-09
2.1685073709969698e-08
6.142314268010943e-08
9.450650939752215e-08
8.945072212971028e-08
5.980585357434568e-08
2.1713792106077035e-08
7.3046265886154305e-09
2.4851477229781124e-08
5.216172412296679e-08
7.305870537400435e-08
6.54225583521283e-08
4.510017849430789e-08
2.5170451542232682e-08
1.2603689945755124e-08
9.265687069244387e-09
9.997578957365403e-09
1.6451863178431838e-08
3.069433790580945e-08
3.872267318611239e-08
4.4971180060132157e-08
3.379098480962629e-08
2.0336405589851594e-08
7.87699753777097e-09
9.437728705835057e-09
2.958870392640241e-08
6.26664084739395e-08
8.416231954365571e-08
8.018720077402935e-08
4.257169843870909e-08
7.708211847781747e-09
1.0305250376131785e-08
5.0435503469574505e-08
7.206483320290875e-08
5.749699395285536e-08
1.8016425978756573e-08
5.972649993149479e-10
2.4738056101795673e-08
5.588706167715852e-08
4.3882265678549614e-08
1.5037373979925863e-08
3.139147475644031e-08
1.2007345222133002e-07
2.1270424365717367e-07
1.9729281654007187e-07
8.53238975398739e-08
4.7618723584405085e-09
7.860128095002302e-08
2.6752251558712297e-07
3.9914192059483343e-07
3.310114390408086e-07
1.5070167787009923e-07
1.498215656671365e-08
3.3880345134090726e-08
1.2029971061260582e-07
1.3652547999290836e-07
6.272829622000413e-08
1.4361069172101196e-26
1.9971830986506624e-27
7.7884549905018795e-28
1.5372200232352646e-26
6.577015330077793e-08
1.2542491990981145e-07
8.836901731904741e-08
1.2980674424624155e-08
1.9891311750949036e-08
9.787993942703525e-08
1.25079844268972e-07
6.449187407686662e-08
2.152707887358027e-08