# vtk DataFile Version 4.1 
COMMENT
ASCII
DATASET STRUCTURED_POINTS 
DIMENSIONS 400 400 1 
ORIGIN 0 0 0
SPACING 0.002506265664160401 0.002506265664160401 0 
POINT_DATA 160000
SCALARS U double 1
LOOKUP_TABLE default
3.872690381828481e-07
1.1864393623764718e-12
7.664152415925612e-12
9.000251434050904e-12
3.114973837453959e-11
3.014385544691511e-11
6.074750256718299e-11
7.838233422311e-11
7.976692096224418e-11
1.700436883914234e-10
8.10843889240591e-11
2.935038965401976e-10
1.0922731279298351e-10
3.6906789938421863e-10
2.715636407654381e-10
3.0563687751581723e-10
5.849634634185784e-10
2.3233592553993102e-10
7.551440534461598e-10
5.403981374026093e-10
5.232615897220829e-10
1.1161378512484885e-09
4.985943547335301e-10
1.0205566261510444e-09
1.3754664343779705e-09
6.728011814997762e-10
1.621926132083892e-09
1.5716722553378497e-09
8.656163039649608e-10
2.3160452034770547e-09
2.4431249138776894e-09
1.2278559271835408e-09
2.233877212124003e-09
3.1730676273649757e-09
2.631062489355994e-09
4.191740665024209e-09
3.47192006520084e-09
1.977215940694553e-09
4.126247776413763e-09
9.731422565879248e-09
5.811948102306432e-09
1.6718644978434802e-09
4.918889087833343e-09
1.3048036187663248e-08
1.078744771917928e-08
6.9693648206402895e-09
8.570997325787937e-09
1.0546176552630605e-08
1.3934437530180252e-08
1.925045907969004e-08
2.533774906358209e-08
1.8420551243150508e-08
1.4258796942548399e-08
2.1875429805423288e-08
3.946006454159854e-08
6.054278097010098e-08
4.8539553162437245e-08
2.3305848160556665e-08
3.5917592214821194e-08
8.712829917710447e-08
1.4100245694036165e-07
1.319166008425128e-07
6.924151116217432e-08
6.356265863307253e-08
1.7181240580581743e-07
3.276963652683134e-07
3.689127852502303e-07
2.3535567126174115e-07
1.4687721679765102e-07
3.3445284835198654e-07
7.034118662127387e-07
9.24564531013724e-07
7.199382454587407e-07
4.049607337706588e-07
6.884851317485194e-07
1.4745797425863128e-06
1.982145523262199e-06
1.6367258382779482e-06
8.947426257962596e-07
1.1691683129384384e-06
2.7477552493591224e-06
3.9278839759885824e-06
3.1017387733524435e-06
1.410289081833065e-06
1.2874309500066414e-06
3.155741070736406e-06
4.943147410180397e-06
4.399082789400654e-06
2.1541735237270027e-06
1.2655064708146733e-06
3.6607668122322844e-06
6.952082288973976e-06
7.076453611591132e-06
3.7324873516311465e-06
1.4522756713114652e-06
3.961537721372222e-06
8.832907696402719e-06
1.0080700847393815e-05
5.886626309942597e-06
1.7164921370182709e-06
3.580808630104961e-06
9.989526258236774e-06
1.3075549559336609e-05
8.71726694718886e-06
2.4089281631197426e-06
2.8078527509318626e-06
1.0224816553415818e-05
1.555592759159864e-05
1.1812454418490614e-05
3.6200814049873712e-06
1.8171070775456066e-06
9.351120805264557e-06
1.6954818205019207e-05
1.475867762257141e-05
5.4143596463530515e-06
9.944334034770584e-07
7.492476923416935e-06
1.674714113135496e-05
1.679566201090891e-05
7.450347750661537e-06
2.223116589667223e-24
2.0266422985175674e-25
1.7774588250910744e-26
1.6434485340144754e-27
5.022518272320664e-10
5.127723635432904e-10
4.673118354974248e-10
4.293207785055879e-10
4.0348556705760744e-10
3.2049952247734355e-10
3.5799671045419395e-10
3.736798299610288e-10
3.631950643652281e-10
5.007552026566072e-10
4.82560439534e-10
4.6033325859230667e-10
5.396851921214397e-10
3.748207877045508e-10
3.056723977760067e-10
2.8894261647783024e-10
1.3134624460994486e-10
8.125389502053654e-11
1.171942493716347e-10
1.1975254747605553e-10
1.0196724400310809e-10
2.22084595224896e-10
3.402323806374766e-10
2.781158598680656e-10
3.5414073973329243e-10
4.739344780979429e-10
3.431142382186417e-10
2.9013223210720897e-10
3.565345078655172e-10
2.363750932953693e-10
1.1579464240930931e-10
1.314988118093599e-10
8.241642711576135e-11
1.1408714283764508e-11
2.319712583499963e-11
1.7589206155701164e-11
1.3865530259210072e-11
7.645692209998025e-11
9.959179024897594e-11
8.378944774863606e-11
1.582710218013385e-10
2.475688529189285e-10
2.1984242212759522e-10
1.9733868221033103e-10
2.9738894810014183e-10
3.657140836241292e-10
2.911778322753334e-10
2.436473749505864e-10
3.436017717336308e-10
4.230212387736334e-10
3.388296208352023e-10
2.426001105047202e-10
3.174847468460666e-10
4.5940082218502144e-10
4.4798791678519177e-10
3.086160426332837e-10
2.7973100768158844e-10
4.5127567970411316e-10
6.276905696988277e-10
6.029202995987309e-10
4.4632915474941583e-10
4.174069528394081e-10
6.392327103437838e-10
9.464663954964348e-10
1.074571584686429e-09
9.52018172601011e-10
7.739977714217728e-10
8.031967124322058e-10
1.1194229005238716e-09
1.5541731538495799e-09
1.8425472941645762e-09
1.8349936263966382e-09
1.5935721237594714e-09
1.32224046469008e-09
1.2127364910911933e-09
1.326696739200011e-09
1.5803213231708243e-09
1.8158769630347625e-09
1.896945338896241e-09
1.7695977100044723e-09
1.4681998047317129e-09
1.0801092756306593e-09
6.988582885854818e-10
3.9017108478659297e-10
1.8022000026211968e-10
6.223008896845073e-11
1.1531283474087364e-11
1.339671605801061e-14
5.187048073059352e-12
1.3278989783150972e-11
1.8224446225307947e-11
1.8943642341520283e-11
1.665884761341377e-11
1.3067046773695908e-11
9.455908067589335e-12
6.4924058021623796e-12
4.349939966749446e-12
2.9263316754830233e-12
2.0241543737335793e-12
1.455834506135778e-12
1.0843074071461201e-12
8.25045457753497e-13
6.322737239309222e-13
4.833153514938835e-13
3.6694833241474756e-13
2.766645321575809e-13
2.0758803351806406e-13
1.5545811866219693e-13
1.1649206554989413e-13
8.747709326801938e-14
6.583109777677036e-14
4.957891362862746e-14
3.7268350432829326e-14
2.7862290239355723e-14
2.0632721397857935e-14
1.5069965952627195e-14
1.0811592653906336e-14
7.590654920822078e-15
5.200595473702247e-15
3.473300599515506e-15
2.2667176193518844e-15
1.458814256030576e-15
9.452440764787847e-16
6.387446448258668e-16
4.689378977574451e-16
3.8176462937587467e-16
3.382329574244462e-16
3.12480905730962e-16
2.8934873236453295e-16
2.617430907822374e-16
2.280769957443206e-16
1.9001532351266287e-16
1.5067293717541495e-16
1.1332479024677355e-16
8.06112192865508e-17
5.416661397659591e-17
3.4568827752126806e-17
2.1498214754275306e-17
1.400411210790305e-17
1.0796663905495785e-17
1.0506934372380445e-17
1.1883173044138599e-17
1.391231924730968e-17
1.5871454153237875e-17
1.7323451872983845e-17
1.8075138089057447e-17
1.8116066368487486e-17
1.7553044005683825e-17
1.6551192944759868e-17
1.5287766261481038e-17
1.392095052921848e-17
1.2572901453180625e-17
1.1324409090709736e-17
1.0217771772205166e-17
9.26444583595936e-18
8.454553912324624e-18
7.766112845042589e-18
7.172669456757299e-18
6.648761883841236e-18
6.173177166907033e-18
5.7303294983219924e-18
5.310255181773783e-18
4.907749918929697e-18
4.521109551655116e-18
4.150822254952883e-18
3.798434752861996e-18
3.4657021567060033e-18
3.1540439145384534e-18
2.8642712469709244e-18
2.596522010193365e-18
2.35033122661849e-18
2.124772352273358e-18
1.91861891618036e-18
1.7304930589093865e-18
1.5589830472708999e-18
1.4027240439830329e-18
1.2604446021639136e-18
1.1309858045321592e-18
1.0133014765797068e-18
9.064474356826624e-19
8.095661575827029e-19
7.218712304441497e-19
6.426340676301189e-19
5.711739206073718e-19
5.068512996122705e-19
4.490642547579368e-19
3.97246545294351e-19
3.508667689232477e-19
3.094279953457343e-19
2.7246771578155913e-19
2.3955763712013973e-19
2.1030273531804774e-19
1.8433968291348312e-19
1.613353865767571e-19
1.409857796356013e-19
1.2301415082757276e-19
1.0716881912082798e-19
9.322104752676417e-20
8.09636683746868e-20
7.020969539937881e-20
6.079047488404696e-20
5.2553990885920715e-20
4.536363696076509e-20
3.909694490983829e-20
3.364420294326622e-20
2.8907406046743e-20
2.4799350923151347e-20
2.1242489436825845e-20
1.816787498466087e-20
1.551443993735748e-20
1.3228232149317551e-20
1.1261592837763361e-20
9.572572035581387e-21
8.124377907830898e-21
6.884707375721012e-21
5.825242637165787e-21
4.921269595899966e-21
4.151210835912314e-21
3.496255612992052e-21
2.940102038328295e-21
2.468617509537842e-21
2.0695495904536845e-21
1.7323357639708037e-21
1.4478579247283558e-21
1.2082427414886703e-21
1.0067408833968557e-21
8.37558549708899e-22
6.957275121856331e-22
5.770217324286256e-22
4.778317244574481e-22
3.9508097307507053e-22
3.2616462476161663e-22
2.6886127353811283e-22
2.21289043888686e-22
1.8186039563828896e-22
1.4922730660334974e-22
1.2226027463980773e-22
1.0001003892159773e-22
8.167802988067395e-23
6.660142798490777e-23
5.422252873990466e-23
4.4077107214956595e-23
3.577852262676e-23
2.9001160325329747e-23
2.3476099115229093e-23
1.8977123507377312e-23
1.531730752234017e-23
1.2342812147609558e-23
9.92648195099376e-24
7.96652588470217e-24
6.379324127010507e-24
5.098289109587108e-24
4.068646994251641e-24
3.245056477431299e-24
2.5894094038147165e-24
2.06845578316852e-24
1.6541196174855513e-24
1.3221690941085427e-24
1.0535136261471648e-24
8.33425215915566e-25
6.520978455970854e-25
5.033984546227879e-25
3.8404045853858077e-25
2.9186434924487156e-25
2.245704155079597e-25
1.786542827596788e-25
1.4915185008673274e-25
1.3004378594615175e-25
1.1528130951202504e-25
9.998267419809577e-26
8.147455938492401e-26
5.972942594676029e-26
3.710497811130186e-26
1.7370869453781707e-26
4.367044146722989e-27
2.189256688568059e-31
1.165248740392665e-12
7.489864255320523e-12
4.83829709698681e-11
5.681762055649405e-11
1.966449524624072e-10
1.902949215855143e-10
3.834924586171655e-10
4.948192566456442e-10
5.035600040067734e-10
1.0734675398620608e-09
5.118770377361351e-10
1.8528585726374188e-09
6.895402931964498e-10
2.3298860060131358e-09
1.7143520946065434e-09
1.929452778293031e-09
3.692811511707975e-09
1.4667117419660955e-09
4.767143296894044e-09
3.4114753954777052e-09
3.3032942106636065e-09
7.046058366886569e-09
3.1475726057698798e-09
6.442664359540808e-09
8.68317185684519e-09
4.247321591015783e-09
1.0239045455414263e-08
9.921798129451027e-09
5.464542748230715e-09
1.4620944595502187e-08
1.5423185157210875e-08
7.751322580257822e-09
1.4102226892025128e-08
2.0031235101903528e-08
1.660961488421102e-08
2.6462008569617975e-08
2.1917858441236045e-08
1.248195185432407e-08
2.6048558998627253e-08
6.143342537422535e-08
3.6690204089359976e-08
1.0554300994410095e-08
3.105241845740344e-08
8.237085092014781e-08
6.809999873586635e-08
4.399685151025734e-08
5.410778547862844e-08
6.657687977717573e-08
8.796660738416811e-08
1.2152608041482832e-07
1.5995448822725934e-07
1.1628696138589018e-07
9.001425351393472e-08
1.3809723864962537e-07
2.491071489155278e-07
3.822000731646083e-07
3.064249853210859e-07
1.4712731607963253e-07
2.2674390162521026e-07
5.50031593967291e-07
8.901333651258913e-07
8.3277533152192e-07
4.371142225078884e-07
4.012642364759351e-07
1.0846332629153632e-06
2.0687119549922565e-06
2.3289067871465884e-06
1.4857750723470428e-06
9.272200930776408e-07
2.1113649069633693e-06
4.440563555614183e-06
5.836676573766208e-06
4.544892812641334e-06
2.5564736141270975e-06
4.346332684271313e-06
9.308863525477365e-06
1.2513071779570913e-05
1.0332474410932122e-05
5.648414089397483e-06
7.380833975358558e-06
1.7346283743756836e-05
2.4796309633452658e-05
1.9580943708189707e-05
8.903003489813872e-06
8.127413300190511e-06
1.9921854411009928e-05
3.120555864071405e-05
2.7770937129505544e-05
1.3599066068410723e-05
7.989006418032183e-06
2.3110027670594068e-05
4.388774874422159e-05
4.467289154477001e-05
2.356279173207956e-05
9.168060319273057e-06
2.5008762113199854e-05
5.5761197515663456e-05
6.363838164829545e-05
3.716163959273466e-05
1.0836030486918746e-05
2.2605260255396137e-05
6.306280626031017e-05
8.254453988021982e-05
5.5031169887230364e-05
1.5207304742861663e-05
1.7725672815914836e-05
6.454816862046941e-05
9.820289997231085e-05
7.457075592927104e-05
2.2853185064810606e-05
1.1471201799085442e-05
5.9032621208930325e-05
0.00010703394615538367
9.316994655308864e-05
3.4180270873212716e-05
6.277751260781379e-06
4.7299202025891285e-05
0.00010572290309662022
0.00010602921019745667
4.703324508351977e-05
1.40342962382894e-23
1.279397514221277e-24
1.1220906640089448e-25
1.037491406700992e-26
3.1706618367919643e-09
3.237076852479244e-09
2.9500894219908393e-09
2.7102559599460135e-09
2.547161045120122e-09
2.023279059489467e-09
2.259994779490781e-09
2.3590006283618746e-09
2.292811429358814e-09
3.161213806604469e-09
3.0463522213709227e-09
2.906034415580774e-09
3.406974648497484e-09
2.3662033720426984e-09
1.9296770138802588e-09
1.8240637015458181e-09
8.29174733889561e-10
5.129471115159889e-10
7.398347080625599e-10
7.559849692005371e-10
6.437082587538823e-10
1.4019961948164557e-09
2.147850473483058e-09
1.7557155500059835e-09
2.2356524505122537e-09
2.9918974533680416e-09
2.166043330843132e-09
1.8315736172335496e-09
2.2507640516084645e-09
1.492210574145858e-09
7.309991396457958e-10
8.301378742317225e-10
5.202860517617391e-10
7.202198782580359e-11
1.4644096371661433e-10
1.110387691463383e-10
8.753160318409044e-11
4.826643367271881e-10
6.287122743593629e-10
5.28953783536406e-10
9.991479602197732e-10
1.5628755762907737e-09
1.3878415968923982e-09
1.2457779039955803e-09
1.877384485829154e-09
2.308713727364095e-09
1.83817437878356e-09
1.5381197070955021e-09
2.1691210775556766e-09
2.6704876422725098e-09
2.1389950015263528e-09
1.531508439138875e-09
2.0042471047562028e-09
2.900148044697651e-09
2.828099598806308e-09
1.948259927677654e-09
1.7659118046644038e-09
2.8488548929640084e-09
3.962543144195883e-09
3.806171089710321e-09
2.8176280122475527e-09
2.6350452582187016e-09
4.035407438308123e-09
5.9749406916941155e-09
6.783654990849973e-09
6.009988464220629e-09
4.886164793334103e-09
5.070494571578482e-09
7.066796530104091e-09
9.811328181391741e-09
1.1631803153983486e-08
1.158411766072885e-08
1.0060049646459682e-08
8.34716202738236e-09
7.655875204235293e-09
8.375294009700425e-09
9.976398765655715e-09
1.1463436218309138e-08
1.197521216730122e-08
1.1171280264936012e-08
9.268587663091429e-09
6.818613838959262e-09
4.4118173091680924e-09
2.46310814869563e-09
1.1377095036305698e-09
3.9285186731887737e-10
7.279575395875109e-11
8.457202948879669e-14
3.274527732729484e-11
8.382883616097495e-11
1.1504897147253646e-10
1.1958917930295973e-10
1.0516551560175518e-10
8.249086270778231e-11
5.969413194044143e-11
4.098586045834641e-11
2.746070376870102e-11
1.8473617540394538e-11
1.277826914028766e-11
9.190526861252766e-12
6.8451161922812256e-12
5.208423353946047e-12
3.991476104571396e-12
3.051117899486086e-12
2.3165054074045395e-12
1.7465534740615855e-12
1.3104809578846955e-12
9.813904048455695e-13
7.354018970197897e-13
5.52233493598114e-13
4.1558464912957496e-13
3.129863563030115e-13
2.352710931661036e-13
1.7589164550063036e-13
1.3025215395607103e-13
9.513507634422536e-14
6.825242311531123e-14
4.791898917788766e-14
3.283080061238249e-14
2.1926573606076787e-14
1.4309544855358375e-14
9.209337702273868e-15
5.967224323029005e-15
4.032326333118241e-15
2.960354578377641e-15
2.4100390986528466e-15
2.135228329503833e-15
1.9726583932756127e-15
1.826627467516326e-15
1.6523560174202385e-15
1.439825575632093e-15
1.1995463271632948e-15
9.511820681116291e-16
7.154072282386685e-16
5.088899686392554e-16
3.419480158197219e-16
2.1822929644745672e-16
1.3571592054964e-16
8.840645550935609e-17
6.815817953014148e-17
6.632914810838835e-17
7.501719501686609e-17
8.782697704020387e-17
1.0019478526419142e-16
1.093610909050872e-16
1.1410640524606598e-16
1.1436478107786643e-16
1.1081048137757448e-16
1.044859032420859e-16
9.651002629937072e-17
8.788146539577964e-17
7.937137637714678e-17
7.14897781975475e-17
6.450369567338971e-17
5.848545143775072e-17
5.3372690717005335e-17
4.902663620697788e-17
4.5280291840442995e-17
4.1972919607262984e-17
3.897060437337924e-17
3.617495460932947e-17
3.3523070570527443e-17
3.098209808060956e-17
2.854127897232126e-17
2.6203695042018996e-17
2.3979110592422208e-17
2.1878605452794184e-17
1.9911140446229384e-17
1.808183672131283e-17
1.6391564549364057e-17
1.4837388576819325e-17
1.341345963110059e-17
1.2112035132665501e-17
1.0924416802932192e-17
9.841692521914036e-18
8.855246218452266e-18
7.957051384951933e-18
7.139791901098788e-18
6.39686337959648e-18
5.722305296958139e-18
5.1107041946504705e-18
4.557095539225933e-18
4.0568798415057625e-18
3.605759609121067e-18
3.1996978118837067e-18
2.834894404815239e-18
2.507774770882574e-18
2.2149842244564364e-18
1.9533856979368373e-18
1.7200594230736392e-18
1.5123016314641117e-18
1.3276185787529254e-18
1.1637166176999359e-18
1.0184929658934712e-18
8.900280830923035e-19
7.765751208190999e-19
6.765452437537212e-19
5.884944598565123e-19
5.1111494187494e-19
4.432262656015007e-19
3.8376373823772964e-19
3.3176769946545056e-19
2.863757674755558e-19
2.468148136841017e-19
2.1239223934611798e-19
1.8248934933333287e-19
1.5655563859783883e-19
1.3410155408888074e-19
1.146918433068348e-19
9.794099286741203e-20
8.350840867062931e-20
7.109322593999777e-20
6.043061903911395e-20
5.1288325065929286e-20
4.3462418153817107e-20
3.677413105991728e-20
3.1067446349129814e-20
2.6206148111877104e-20
2.2071486140480576e-20
1.8560548361916692e-20
1.5584117175369698e-20
1.3064844267391835e-20
1.0936049602053895e-20
9.140171559618609e-21
7.627506645683024e-21
6.355447059528077e-21
5.287417159388054e-21
4.39205305404286e-21
3.642676217015902e-21
3.0165003510195217e-21
2.494103746073506e-21
2.059042241702777e-21
1.69729234057061e-21
1.396973964683753e-21
1.148065143440052e-21
9.420559575901255e-22
7.718159814220654e-22
6.3135263330415575e-22
5.156246293303128e-22
4.2044766098983998e-22
3.423009997145011e-22
2.7825404338066697e-22
2.258659702537027e-22
1.8308121002359493e-22
1.4820209206926345e-22
1.1980054230669277e-22
9.669651710605019e-23
7.791884730572727e-23
6.266481432048184e-23
5.0291822199323683e-23
4.027198798958806e-23
3.218495152478736e-23
2.5684931447927642e-23
2.048569297981258e-23
1.634666342928414e-23
1.3057939179490043e-23
1.0442279470746567e-23
8.346711472567263e-24
6.650718360496326e-24
5.2613238671257504e-24
4.116623655275639e-24
3.1779003723465623e-24
2.4244061637026997e-24
1.8425082866712042e-24
1.4176889112532873e-24
1.1278252972165376e-24
9.415796087057555e-25
8.209524522464128e-25
7.277585242040185e-25
6.311798827440228e-25
5.143401419460803e-25
3.7706545026740225e-25
2.342397412486602e-25
1.0966043299938547e-25
2.7568680619657645e-26
4.018329769411467e-27
3.925806869081272e-12
2.5259411221727205e-11
1.9955200039567744e-10
1.8705957089806647e-10
8.118543927172053e-10
6.389764148760381e-10
1.6036096928706696e-09
1.7284956401317482e-09
2.1244979080726124e-09
3.942093145561634e-09
2.0641639224002347e-09
7.161010006839817e-09
2.3735278063862445e-09
9.45070180791086e-09
5.901763633052835e-09
8.052695465992494e-09
1.3833396271571519e-08
5.400668547876972e-09
1.9160866017479583e-08
1.1892259167572869e-08
1.3621074936057245e-08
2.707442656810333e-08
1.093253631775082e-08
2.6481914011592656e-08
3.2342971521302915e-08
1.5660344481069603e-08
4.157259556441826e-08
3.639079952709895e-08
2.051374977886388e-08
5.89626593287284e-08
5.718361117923023e-08
2.9621720995046484e-08
5.737426988512052e-08
7.513368872515991e-08
6.122037575086462e-08
1.0865044623991925e-07
8.507416816980033e-08
4.2657701810600596e-08
1.0039127451991886e-07
2.478565708471064e-07
1.4217402210586884e-07
3.809252999074623e-08
1.1885264136806156e-07
3.295014328767525e-07
2.6794959370858215e-07
1.7376679984625443e-07
2.0993166165388738e-07
2.617888445960057e-07
3.4108550068636713e-07
4.739686153029706e-07
6.454939353184531e-07
4.571606314709549e-07
3.372783077011378e-07
5.356568516418125e-07
1.0056606190681865e-06
1.5253143313178595e-06
1.1937219685797447e-06
5.653283532965081e-07
8.73520484042882e-07
2.2021169959697544e-06
3.5830756084665844e-06
3.2826617707029933e-06
1.7073081972416752e-06
1.56564422022589e-06
4.291590482365623e-06
8.319974577858683e-06
9.332544727932173e-06
5.901427671011287e-06
3.6646621707676253e-06
8.302178210151983e-06
1.7739786993274555e-05
2.3525541421333784e-05
1.8338260654684885e-05
1.030983206336537e-05
1.7236928323155284e-05
3.701756933700746e-05
5.0091778452460864e-05
4.1711339552087505e-05
2.302444226062275e-05
2.968732489838706e-05
6.957577866257536e-05
9.927425629281577e-05
7.836559924646083e-05
3.564377749363032e-05
3.215602069298513e-05
7.885544398510083e-05
0.00012396546491406845
0.00011102055555900802
5.4715424882121647e-05
3.1962098626216484e-05
9.176093037216654e-05
0.00017474952383874962
0.0001783788566620392
9.445506219738104e-05
3.678078643955209e-05
9.937655325251604e-05
0.00022190283192767305
0.0002537361420291078
0.0001486684649104176
4.3449665261584024e-05
8.979979181033468e-05
0.0002508786462716637
0.0003290673389022734
0.00021985985692218546
6.1030081653326445e-05
7.040415422375766e-05
0.00025661942222542105
0.0003910461097776092
0.0002974124023031881
9.141370480355688e-05
4.5648699229239465e-05
0.00023483693801707614
0.00042615982082906846
0.0003713067060121557
0.0001363764005073287
2.5013042983739092e-05
0.00018819746434140178
0.0004209035158831924
0.00042225403622644724
0.0001873296022570501
4.2071433168057316e-23
3.835296949328453e-24
3.363767029180841e-25
3.112331290256548e-26
1.261650704653628e-08
1.273364131474851e-08
1.1612514577174451e-08
1.0721953790326545e-08
1.000982805871534e-08
8.327703668392866e-09
9.25127791389925e-09
9.60209027722512e-09
9.658471259468358e-09
1.2582936828511226e-08
1.1931666634491633e-08
1.1581110873370442e-08
1.2693450680765776e-08
8.835078667252157e-09
7.318288897989616e-09
6.468327062482333e-09
3.086195506949232e-09
2.1631171059836775e-09
3.112340573198892e-09
3.256243713895471e-09
3.158266222238408e-09
6.3438610852909205e-09
8.596129862450978e-09
7.208313800710377e-09
9.478862024304567e-09
1.1431693277191232e-08
7.99839648354094e-09
7.353722450051532e-09
8.358715896588037e-09
4.939404916660879e-09
2.6220817992528436e-09
3.000398531612305e-09
1.4600014337325078e-09
1.6302063026990426e-10
6.871462350763273e-10
3.6591373232084153e-10
6.847790361651004e-10
2.6589032384717825e-09
2.9204654510838508e-09
2.503672777708373e-09
5.071674567066652e-09
7.515355615061654e-09
6.25589062629609e-09
5.633666582292182e-09
8.890103843720486e-09
1.093151619387228e-08
8.51660720822675e-09
6.98730254332558e-09
1.0058691936881787e-08
1.2706761477886472e-08
1.0417660805204694e-08
7.388078156756222e-09
9.24888224729005e-09
1.3516392374920634e-08
1.3743238179599093e-08
9.903131210028815e-09
8.436264036748973e-09
1.2543892345784558e-08
1.7554892871392218e-08
1.755404173727787e-08
1.3434081774782869e-08
1.1694928136285244e-08
1.6236926912638883e-08
2.369077908642066e-08
2.740472720607662e-08
2.4822108219620873e-08
2.0042101519862303e-08
1.949135989217719e-08
2.5724376369762747e-08
3.5309247881495705e-08
4.2068643236673155e-08
4.2152686251718405e-08
3.663652705154353e-08
3.0154622460026684e-08
2.7323601111989997e-08
2.982798747041965e-08
3.587556965743883e-08
4.177821422524702e-08
4.420788641440485e-08
4.1722928718764895e-08
3.499464751295935e-08
2.6023709264684973e-08
1.7035070915321977e-08
9.644032011534e-09
4.540888545983199e-09
1.620336802597721e-09
3.274051495014019e-10
2.53162473082682e-12
1.0520977368459235e-10
2.9654054137753605e-10
4.2155486553502013e-10
4.4730768608283893e-10
3.9934166185138323e-10
3.1719700587073705e-10
2.320939519075439e-10
1.6090971784116604e-10
1.0865086445069375e-10
7.34496433622021e-11
5.08742374559091e-11
3.652814789178085e-11
2.7116741019249283e-11
2.0563890081595368e-11
1.5719340201056073e-11
1.1998330396510123e-11
9.104517921647026e-12
6.865294931615911e-12
5.154034772419792e-12
3.862746773874545e-12
2.896989857187416e-12
2.17714484024412e-12
1.6394320677338064e-12
1.2351324649586851e-12
9.284510075904237e-13
6.938340243853819e-13
5.133451338947835e-13
3.7441824123330085e-13
2.6809866627849725e-13
1.8776502423269782e-13
1.2826657568573458e-13
8.538823845883464e-14
5.5553050810834405e-14
3.568086673866452e-14
2.3136933009659324e-14
1.57209454943181e-14
1.1663626095524187e-14
9.612181084371971e-15
8.597317427180522e-15
7.982485377558935e-15
7.400793835007583e-15
6.687046617119656e-15
5.812223781177402e-15
4.826223034481323e-15
3.81249311607769e-15
2.8559231779415786e-15
2.023415310302023e-15
1.355192109627821e-15
8.641441432862368e-16
5.403463094525341e-16
3.581345684685527e-16
2.8367167916660743e-16
2.815839359497721e-16
3.1989110585729814e-16
3.7299034041285135e-16
4.2284571566751713e-16
4.587687596405764e-16
4.762690877635879e-16
4.754409423550749e-16
4.59269427151386e-16
4.3212573435236656e-16
3.9860273982345516e-16
3.6274073305938425e-16
3.2761818719638728e-16
2.9523698364603227e-16
2.6661244069289584e-16
2.4197972285656665e-16
2.210424908353533e-16
2.0321019585829466e-16
1.877918156682868e-16
1.7413243180692637e-16
1.6169295386322647e-16
1.5008202796917684e-16
1.3905324187721243e-16
1.284812296936766e-16
1.183284384592728e-16
1.0861131064026742e-16
9.937138071249473e-17
9.065389580019526e-17
8.24943739895893e-17
7.491209854711204e-17
6.790883992835973e-17
6.147094015281732e-17
5.557309776160846e-17
5.018258188221675e-17
4.52630439962873e-17
4.0777494538964667e-17
3.6690319894460736e-17
3.2968419102988616e-17
2.958164733666383e-17
2.6502786547356206e-17
2.3707247880861013e-17
2.117266765122138e-17
1.887850602906978e-17
1.680570865507556e-17
1.4936455155183003e-17
1.325399551181876e-17
1.1742559299957006e-17
1.0387312179421717e-17
9.174335276851824e-18
8.090615921712699e-18
7.124045908120215e-18
6.263415777278658e-18
5.498389437795791e-18
4.81946162351748e-18
4.217918331881735e-18
3.6858052157374646e-18
3.2158843791431815e-18
2.80157302906072e-18
2.4368878915655032e-18
2.1164094721911976e-18
1.8352466944829624e-18
1.5889884132490982e-18
1.3736583605299427e-18
1.185683242901515e-18
1.0218599992749269e-18
8.793192876352215e-19
7.55497742168284e-19
6.481147711878687e-19
5.551426110758785e-19
4.747782587250921e-19
4.0542469293302705e-19
3.4567124007965695e-19
2.9427177531802696e-19
2.5012932120382064e-19
2.1228197262290237e-19
1.7988526138559047e-19
1.5219876221029513e-19
1.2857635897584473e-19
1.0845403702523294e-19
9.133999347466598e-20
7.680806475621625e-20
6.448889427188726e-20
5.4062183675481525e-20
4.5251834118753496e-20
3.781957423212715e-20
3.155959305756153e-20
2.6295481818300198e-20
2.187585716132645e-20
1.8170853613713455e-20
1.507003444368748e-20
1.2479101576317155e-20
1.0317638988316324e-20
8.517592218891514e-21
7.020927123450982e-21
5.77845484135754e-21
4.7487119694176864e-21
3.896476134210892e-21
3.192230942963011e-21
2.6111902181164943e-21
2.1324826805228993e-21
1.7387971659194512e-21
1.4155691054477786e-21
1.1506651902433928e-21
9.339937799265894e-22
7.570455933549792e-22
6.127977683847552e-22
4.953447336768812e-22
3.9980069153554064e-22
3.221523649780436e-22
2.590760599201723e-22
2.0791516952342061e-22
1.6648609223896374e-22
1.330489212612184e-22
1.0617519577323894e-22
8.46792070029548e-23
6.756777745471124e-23
5.397163676824579e-23
4.315880783799029e-23
3.44963195774648e-23
2.74859894054984e-23
2.1743418952612476e-23
1.7012318656394182e-23
1.3132815166832804e-23
1.0018692703061598e-23
7.613856061075669e-24
5.8579928323163294e-24
4.6599391761258436e-24
3.890021353460708e-24
3.391416720034186e-24
3.0062166991093925e-24
2.6071926075190656e-24
2.1245020527002532e-24
1.5574683184152274e-24
9.675049338129874e-25
4.5293721189472745e-25
1.138749910264624e-25
1.6658146489773435e-26
7.38497540475409e-12
4.7442657625543585e-11
4.031194057695204e-10
3.498384648986559e-10
1.6413762872378946e-09
1.2001011686797636e-09
3.2637672899747957e-09
3.283775135942605e-09
4.360194289088335e-09
7.617567247047239e-09
4.219306488283684e-09
1.4101480089955772e-08
4.5850323272598295e-09
1.8979615741327062e-08
1.118523691420327e-08
1.6460866964228483e-08
2.6940836256301936e-08
1.0711761182287367e-08
3.835034658494259e-08
2.2649426605080702e-08
2.7793283559572633e-08
5.325602497858144e-08
2.1037933876361885e-08
5.362837245796604e-08
6.289838355464437e-08
3.0935555022417846e-08
8.375178421011146e-08
7.047801426468984e-08
4.0681005507336714e-08
1.1817245655247333e-07
1.1147647115276503e-07
5.956368526256561e-08
1.1577540304032907e-07
1.4555185858916435e-07
1.1964535166459707e-07
2.2161918824867332e-07
1.7006164879781602e-07
7.887839016086654e-08
1.965518855178444e-07
5.002758580315422e-07
2.888224070407174e-07
7.526188078942361e-08
2.276241867030039e-07
6.60841159994135e-07
5.47725792588847e-07
3.555337175578026e-07
4.0810121860392314e-07
5.173648503326211e-07
6.857445327843685e-07
9.521142686004746e-07
1.299785459153324e-06
9.050959617963257e-07
6.564411592406685e-07
1.0726052204664017e-06
2.042539609412368e-06
3.050152718158798e-06
2.355684024974222e-06
1.1220603097972093e-06
1.7375829799911546e-06
4.432856021506962e-06
7.205366614858131e-06
6.5208352566963774e-06
3.392156735635127e-06
3.1388766939717905e-06
8.590002784870473e-06
1.6718731957526797e-05
1.869198346238763e-05
1.1770605476413287e-05
7.356525573534265e-06
1.658998270548217e-05
3.5578857431305445e-05
4.726931880900459e-05
3.6783103912366e-05
2.0743737922337836e-05
3.4516762562615354e-05
7.41105867649684e-05
0.00010046776438569095
8.37720833086708e-05
4.642241104921759e-05
5.96855272919195e-05
0.00013967111296419733
0.0001989855195632324
0.00015690686669240679
7.13702945292756e-05
6.413260478739814e-05
0.00015750606580163445
0.00024791127394839047
0.00022256216927178
0.00010997843702058516
6.406528915638627e-05
0.00018331074616715932
0.00034936815752238887
0.000357084846503089
0.00018940222670484768
7.393694838150293e-05
0.00019868087067648345
0.0004436316267319463
0.0005074108012749047
0.00029761337348259046
8.71094686629386e-05
0.00017966968139873827
0.0005017968631912454
0.0006585392961464114
0.00044025562261001863
0.00012240790172311907
0.0001406462823382487
0.0005128430280095894
0.0007818686958649281
0.00059502280394321
0.00018311773009408472
9.13675346685402e-05
0.00046949581935728076
0.000852113365361857
0.0007426050121316186
0.0002728397080650513
5.003126707401615e-05
0.00037623317441730895
0.0008415775580994688
0.0008443408205097273
0.0003745985239702187
8.418855324126479e-23
7.674657144215193e-24
6.73147068376654e-25
6.233875099960309e-26
2.514056064689647e-08
2.5106487948818564e-08
2.29527663173832e-08
2.1364483716295232e-08
2.002587354602933e-08
1.7384264730002154e-08
1.9223798269257804e-08