# vtk DataFile Version 4.1 
COMMENT
ASCII
DATASET STRUCTURED_POINTS 
DIMENSIONS 400 400 1 
ORIGIN 0 0 0
SPACING 0.002506265664160401 0.002506265664160401 0 
POINT_DATA 160000
SCALARS U double 1
LOOKUP_TABLE default
1.2153431114406475e-06
1.1054354274258015e-08
3.206185773618291e-08
3.5136529090959815e-08
1.8382155718406036e-08
1.6850290059265038e-09
7.710472515451144e-09
2.5451294238494102e-08
3.2047458949692715e-08
1.8410353502049604e-08
8.378028717403638e-09
2.006874873621649e-08
4.221622780262444e-08
4.5579413278413466e-08
2.535421681454627e-08
3.730901254740146e-09
6.775745602062508e-09
2.8177996385149635e-08
4.316694036222404e-08
3.1793285770213935e-08
1.211835748928424e-08
8.037827732063135e-09
2.2083495400060406e-08
3.536298356267326e-08
3.3822005665406506e-08
2.323882008704653e-08
1.7304904197261484e-08
1.8851254616784063e-08
1.5625628303803995e-08
5.4448101083133496e-09
1.3358487279280988e-10
1.1182084515086525e-08
3.29342844278045e-08
4.470905702553468e-08
3.834136564333075e-08
2.6369869809245552e-08
2.6127974868164297e-08
4.25274528981332e-08
5.8447215466637855e-08
5.911194262929072e-08
4.469398719280686e-08
2.542126521855021e-08
1.1115723500202422e-08
2.9056052717328686e-09
6.281981085448976e-11
5.501732654377535e-09
1.8930965044747505e-08
3.354787713100672e-08
3.83114782959499e-08
3.365995276369236e-08
3.3538500157485083e-08
4.631182409898113e-08
6.3477991762773e-08
6.947197829383686e-08
5.146002136967414e-08
2.372487632706617e-08
3.978906037997869e-09
1.2504650843892215e-09
1.0687531375373007e-08
2.0612722046484968e-08
2.5368549002459488e-08
2.328451140040549e-08
1.7919321114744165e-08
1.4153390152338458e-08
1.7705122222119737e-08
3.3803816218306976e-08
5.2373278899588944e-08
6.216135720962559e-08
5.2972290965078065e-08
2.9514763183261577e-08
7.425224314264433e-09
1.1681177000495357e-09
1.2219461858659707e-08
2.870619299113879e-08
3.952409243404838e-08
3.568912750057107e-08
2.2434468682752808e-08
1.0310240101433532e-08
6.937811371647376e-09
1.625506098328831e-08
3.062037251097245e-08
4.163790097229015e-08
3.892899942978104e-08
2.6692804683965615e-08
1.1481713683068555e-08
2.482432089765576e-09
2.0058628866271067e-09
5.4088110986586696e-09
6.312538699570388e-09
4.6181068813119184e-09
3.0467893208817702e-09
9.13336915457167e-09
2.3776856147934244e-08
4.366364589527092e-08
5.814005077444654e-08
6.00063442375714e-08
4.9653411606452e-08
3.007334355664441e-08
1.3102906114412634e-08
2.671384420704199e-09
4.3176489104484904e-10
2.3691057456675222e-09
5.0466599402888645e-09
5.709229749680158e-09
4.312454615329613e-09
3.5074516813729055e-09
3.727213268694428e-09
7.369511320159498e-09
1.2972129042488136e-08
2.0746801542270738e-08
2.6837941594555517e-08
2.920671142190968e-08
2.852979887107896e-08
2.3030679466753012e-08
1.6435261409278824e-08
1.051708663342276e-08
6.0555478071582436e-09
3.2651625321893608e-09
1.7180837998932731e-09
5.257554155802122e-10
1.6754718830875479e-28
1.8043302607983114e-29
2.539230837195321e-30
1.1897870299974605e-29
4.615975986959725e-11
1.4230954993140303e-10
1.5183401745325345e-10
6.124339382217325e-11
9.204230293283409e-12
7.001990102016529e-12
5.7155963711896375e-11
8.604006505141522e-11
3.2708257614680645e-11
2.3038489463140064e-12
4.4900774776725144e-11
1.777399058364021e-10
2.9379092289350864e-10
2.4090606921311096e-10
1.2140401516673646e-10
4.1967248843269747e-11
2.3122714894352702e-11
5.884622982237262e-11
5.973654402770558e-11
3.0928661113874885e-11
4.0962352572501784e-11
1.1740904552459895e-10
2.1340762616387937e-10
2.532171590711052e-10
2.1663633356751343e-10
1.4980405869459816e-10
1.56996107613076e-10
2.890841287436107e-10
4.0926372197552947e-10
4.1756076293260645e-10
3.290068489937486e-10
1.4084239434355585e-10
2.1810882414741863e-11
1.2610345844262224e-12
2.3371608904100015e-11
2.5272778299402435e-11
8.183749261528948e-12
1.8092975704632933e-11
6.61359840873799e-11
1.193986034979659e-10
1.1198295712430254e-10
3.0133931663741664e-11
1.3014332783022224e-12
7.643263320570639e-11
1.7334938449517586e-10
1.669212165471796e-10
1.5924922524542837e-10
1.7644295438156404e-10
1.8751527984931846e-10
2.7110640728213157e-10
3.868162970817937e-10
4.753133557969867e-10
4.4882269901732183e-10
2.3988846048626676e-10
9.153548888136266e-11
1.4598715530113929e-10
1.892836140990553e-10
1.5662348045206958e-10
1.0898937920172441e-10
7.417733221398677e-11
4.1258949987841585e-11
1.7375231173706558e-11
4.95369167386527e-12
8.702018807685917e-12
2.947393516532632e-11
9.840696820257106e-11
1.7908224027128015e-10
1.8462459828279223e-10
1.3283019423551436e-10
9.875063656868595e-11
1.260593635783611e-10
1.7659345425356495e-10
1.7123141997537393e-10
1.9456401125367475e-10
2.872361094015572e-10
3.913100926751947e-10
3.4576334929165995e-10
1.641418614781908e-10
8.797296526930376e-11
7.714874743945383e-11
1.175920988735947e-10
1.970903136265794e-10
1.7622733202904118e-10
8.166184863719016e-11
1.930448301205731e-11
1.2614690653500844e-10
2.906964214029378e-10
4.3418697415525803e-10
5.109612556568248e-10
4.858248169301854e-10
3.905623724124991e-10
2.0018367937545566e-10
5.7572261675577665e-11
4.2231482764389676e-11
8.883952378509685e-11
1.0537346335081135e-10
1.0771358176462021e-10
2.047527089555702e-10
4.0558970522371464e-10
5.140675209493035e-10
3.989407454642047e-10
3.754006256984592e-10
5.726126798304074e-10
6.732442049060737e-10
5.687040216265963e-10
2.9955984123722527e-10
8.353910132413306e-11
4.149648737132911e-11
5.797000696997396e-11
2.8387364178076417e-11
1.3896843823500486e-10
5.638806935116735e-10
1.0072207289966799e-09
1.1567913319616e-09
9.90257761527676e-10
7.928095318587563e-10
6.545979999150889e-10
5.005931416027954e-10
4.4572959368077625e-10
4.4044848368760324e-10
3.313397986370864e-10
8.251182311879325e-11
6.612015620724355e-11
8.14977679380403e-10
2.3495822689998853e-09
3.5644544377204647e-09
3.5443396543602225e-09
2.444676508587551e-09
1.0709259365396606e-09
2.687740695535997e-10
5.608584169110996e-11
1.237860897967208e-10
3.6490004265780614e-10
4.907949245867791e-10
3.775247315521776e-10
4.6450024279135265e-10
1.292810355857015e-09
3.018412314280016e-09
4.685456129829857e-09
4.598042681893883e-09
3.3654899434783725e-09
1.6618036100165156e-09
3.6467895376256316e-10
8.837016411101279e-13
3.816706638185881e-10
1.2755071516986336e-09
2.2334549703175087e-09
2.303163358993037e-09
1.6309906369193072e-09
1.4193310025938895e-09
2.495643491510193e-09
4.343544285245021e-09
5.519951165646433e-09
4.954540956798399e-09
2.8364044794448017e-09
8.542404659098487e-10
1.4584348735277747e-10
1.0321117922030458e-09
2.6880112053361753e-09
3.918020934133804e-09
3.869901087138012e-09
3.1386476012041824e-09
2.2300646750578872e-09
2.192401162419565e-09
3.2665017749643795e-09
4.3012890002892165e-09
4.2550571754126294e-09
2.731377073381434e-09
8.477897011629394e-10
2.6725119304867657e-10
1.6251600922254326e-09
3.985684706247496e-09
5.898251298156223e-09
6.627609955794787e-09
5.919220306300864e-09
4.105772752912379e-09
2.1890935370295506e-09
1.0811604767715586e-09
9.829485078031286e-10
1.7048230581745417e-09
2.3140396235961172e-09
2.4022944615633163e-09
2.4542670540804744e-09
2.70615517684449e-09
3.89229518951003e-09
5.674105872391044e-09
6.352269297306872e-09
5.629145223659032e-09
3.4576313476588127e-09
8.570448441813694e-10
3.593702478184364e-11
1.3658161822411293e-09
4.384239739014335e-09
7.0436657876832735e-09
7.985964488317832e-09
6.319147933389111e-09
3.1600035288004107e-09
9.293905397695975e-10
9.15318707172796e-10
2.678106581668417e-09
4.177416315329768e-09
3.949069785562195e-09
2.024694301271256e-09
4.773123838786179e-10
1.6246325656962796e-09
5.321262206072245e-09
8.845676259444547e-09
9.935076159617516e-09
6.9806927820175214e-09
2.5529072791155647e-09
1.277786060845238e-10
1.160942914443187e-09
4.425154598424784e-09
7.40293065578878e-09
7.555881460442137e-09
4.364490231386972e-09
1.1456729715993167e-09
4.2316244582971794e-10
2.3668741264984466e-09
4.930141986416224e-09
5.41536185952785e-09
3.257404014554184e-09
5.989196372063866e-10
4.821634002354245e-10
3.657218267152219e-09
6.715338444477848e-09
6.934416591915298e-09
4.175364584550397e-09
9.957092203147434e-10
4.320045054384915e-11
1.470041021608024e-09
3.4983506675335607e-09
3.4849942939716894e-09
1.8951207041201314e-09
2.853900382754378e-10
5.993518625419785e-10
2.8567778600577568e-09
5.818305648581875e-09
6.68844089583097e-09
4.212892633524532e-09
1.0815912927035877e-09
2.3889138495006115e-10
3.390232285787422e-09
7.644904065111478e-09
9.684782435677925e-09
7.3780852773788005e-09
2.766994861596143e-09
1.4657512474039523e-10
1.2765835617662013e-09
5.297837014951208e-09
8.165630706740997e-09
7.3678750635363e-09
3.8503385451182845e-09
4.231372564473548e-10
6.658510793091784e-10
4.15098672014298e-09
7.905181731576654e-09
8.029334904760098e-09
4.850354688041604e-09
1.1806587896393324e-09
7.560940383782694e-11
1.9883920454583155e-09
4.864829629221035e-09
5.882527371055173e-09
4.108345038625642e-09
1.5476720458218345e-09
1.3135650841577864e-10
3.916786689268591e-10
1.3799905805781298e-09
1.9110196110105322e-09
1.6061639379305659e-09
1.1220573595678943e-09
6.609856838267636e-10
2.9701152432164584e-10
7.923423560641412e-11
6.870412486655598e-31
1.0797944113935891e-08
6.978495114876563e-08
2.0240306401871465e-07
2.218131340208377e-07
1.1604457456236824e-07
1.0637407119895024e-08
4.8675384782778226e-08
1.606712867202175e-07
2.0231216602622325e-07
1.1622258414169319e-07
5.288959538129258e-08
1.2669185512129092e-07
2.665065115338048e-07
2.877379401916247e-07
1.6005844737024082e-07
2.3552778872774568e-08
4.277455418065419e-08
1.7788466448798966e-07
2.7250825780338775e-07
2.0070759804575253e-07
7.650188915713414e-08
5.074194310294703e-08
1.3941073439955824e-07
2.232427167765435e-07
2.135146888326132e-07
1.4670417505126938e-07
1.0924400142051897e-07
1.1900594552037e-07
9.864291308167999e-08
3.43725013687836e-08
8.43306953149557e-10
7.059129843918989e-08
2.0791060001269564e-07
2.8224347465503463e-07
2.4204492293389885e-07
1.6647015563114197e-07
1.6494309885082883e-07
2.684712421320384e-07
3.689709932328429e-07
3.731673444101351e-07
2.821483404197243e-07
1.6048171674282772e-07
7.017236848028184e-08
1.8342773979811153e-08
3.9657471824147057e-10
3.4731847287848514e-08
1.1950914889014335e-07
2.1178414483999668e-07
2.418562473201821e-07
2.1249166627072806e-07
2.1172494901336623e-07
2.923615710312083e-07
4.0072974361808157e-07
4.3856913675483985e-07
3.2486158741625703e-07
1.497725958856107e-07
2.5118406430469437e-08
7.894051761173192e-09
6.746923758976115e-08
1.3012590019904972e-07
1.6014892493306953e-07
1.4699261940464995e-07
1.1312274942404096e-07
8.934883176943009e-08
1.1177053482271198e-07
2.1339986080686224e-07
3.306268841066081e-07
3.9241797110811906e-07
3.344083829341807e-07
1.8632352969794293e-07
4.6874643528135925e-08
7.374201569040709e-09
7.714015018104794e-08
1.8121911292626098e-07
2.4951135012311676e-07
2.2530162842429708e-07
1.4162639103399846e-07
6.50874383034804e-08
4.379765797602502e-08
1.0261645397782594e-07
1.9330312262664002e-07
2.6285559637389524e-07
2.4575459190807784e-07
1.6850880880775048e-07
7.2482825192504e-08
1.567132713647779e-08
1.2662796946933408e-08
3.414524348760588e-08
3.9850378759801455e-08
2.9153612695641805e-08
1.9234053717044143e-08
5.765797842752857e-08
1.5010073891142688e-07
2.7564390648073443e-07
3.67031895524611e-07
3.7881360569258654e-07
3.134566540349447e-07
1.8984978759614993e-07
8.271723887395707e-08
1.6864162905700706e-08
2.7256853798761864e-09
1.4955910098942894e-08
3.185902212466679e-08
3.604175416254709e-08
2.722406277161275e-08
2.21421657175623e-08
2.3529497013006692e-08
4.6522933380667784e-08
8.189165726609395e-08
1.309723296540248e-07
1.6942504253467059e-07
1.8437883201738335e-07
1.8010555579339703e-07
1.4539020567242638e-07
1.0375403991118237e-07
6.639323824186072e-08
3.822802286024232e-08
2.0612620343842618e-08
1.0846078483682877e-08
3.3190374654359225e-09
1.0577074029974757e-27
1.139054312735976e-28
1.6029891528061112e-29
7.510997721427811e-29
2.914016058848279e-10
8.983849027791698e-10
9.585118431901645e-10
3.866229668446051e-10
5.8105317184787307e-11
4.420281140719654e-11
3.608194596027666e-10
5.43161688822629e-10
2.064837170197296e-10
1.454395093407204e-11
2.834537682252644e-10
1.1220529339161312e-09
1.8546705391754239e-09
1.5208141384275045e-09
7.664105073422184e-10
2.6493473410704926e-10
1.4597121544103468e-10
3.714899280011494e-10
3.7711038594783345e-10
1.9524931546246815e-10
2.5859093188891143e-10
7.411906931042598e-10
1.3472194211561019e-09
1.5985327263262852e-09
1.3676019041891403e-09
9.45696931591334e-10
9.91099563892007e-10
1.824957053279391e-09
2.583637916466301e-09
2.6360162448158136e-09
2.0769848979875534e-09
8.891229071451074e-10
1.3768975790550156e-10
7.960775879601947e-12
1.4754245659004358e-10
1.5954433477171718e-10
5.166313004455229e-11
1.1421901219719697e-10
4.1750936365960955e-10
7.537505588851465e-10
7.06936379867227e-10
1.9023227380828658e-10
8.215808494684281e-12
4.825110035465872e-10
1.094336044289337e-09
1.0537557105043411e-09
1.0053232534902563e-09
1.1138654186915683e-09
1.1837638200545318e-09
1.7114656287393853e-09
2.441929734264036e-09
3.0006021601723074e-09
2.8333694893710343e-09
1.5143900838396435e-09
5.778537091795019e-10
9.216012304546012e-10
1.1949271242305101e-09
9.887472086496844e-10
6.880382439920618e-10
4.682735306351739e-10
2.6046331951344575e-10
1.0968796806876438e-10
3.1272123444762533e-11
5.493491002040121e-11
1.8606578680618963e-10
6.212326200460496e-10
1.13052694701895e-09
1.1655152578226858e-09
8.385427484798616e-10
6.234021615267812e-10
7.957992218184893e-10
1.1148155082178226e-09
1.0809655617733765e-09
1.2282617042827615e-09
1.813290705674855e-09
2.4702985831517806e-09
2.1827668844973447e-09
1.036209940493503e-09
5.553638802789763e-10
4.870317557840449e-10
7.423462892341067e-10
1.2442099798044447e-09
1.1125042179407992e-09
5.155224788782805e-10
1.2186712769697436e-10
7.963518711005259e-10
1.8351352836560546e-09
2.7409757303882695e-09
3.225643522929054e-09
3.066959885235507e-09
2.4655783054484823e-09
1.2637380655084902e-09
3.634475039315504e-10
2.6660281446884305e-10
5.608343711092717e-10
6.652113556226867e-10
6.799842718092309e-10
1.2925818584732276e-09
2.5604442433503406e-09
3.2452530420662786e-09
2.518470074575237e-09
2.369863827015932e-09
3.614842341554222e-09
4.250118350193135e-09
3.590167402155422e-09
1.891089101020775e-09
5.273733734490528e-10
2.619628675007292e-10
3.65958427251941e-10
1.792063808758518e-10
8.772928235196264e-10
3.559718249855484e-09
6.358476273257972e-09
7.302699423904095e-09
6.251390881674388e-09
5.0049214163395945e-09
4.1324068609353815e-09
3.160190732579267e-09
2.8138430476220605e-09
2.780503967496589e-09
2.091712558496135e-09
5.208882764820804e-10
4.1740944395243357e-10
5.144866550489962e-09
1.4832660487821078e-08
2.2502017995530516e-08
2.2375035528772475e-08
1.5432980207952326e-08
6.7606404056905084e-09
1.6967418311832454e-09
3.54063894230875e-10
7.814482886148227e-10
2.3035747741825214e-09
3.0983356410159377e-09
2.383273079113246e-09
2.9323401392398446e-09
8.161372911504209e-09
1.9054912722435072e-08
2.957878126733079e-08
2.9026949559877538e-08
2.1245976514812255e-08
1.0490787690231587e-08
2.3021790637347386e-09
5.578713539022485e-12
2.4094459041828465e-09
8.052139642246529e-09
1.4099561324855113e-08
1.453962289495595e-08
1.0296268700791906e-08
8.960084164354447e-09
1.5754729296611358e-08
2.7420328518344812e-08
3.4846858792578756e-08
3.127748487669508e-08
1.7905916811181756e-08
5.39272830450505e-09
9.20694270128441e-10
6.515610881648626e-09
1.6969126011144643e-08
2.473404530964527e-08
2.4430269884272196e-08
1.9813945173918886e-08
1.4078158755043913e-08
1.3840393045320208e-08
2.0621074839628837e-08
2.7153575443198233e-08
2.6861718898665034e-08
1.7242890078043543e-08
5.352005319555714e-09
1.6871280753848511e-09
1.0259461098417495e-08
2.516119943501025e-08
3.7235026894649034e-08
4.183938975750404e-08
3.736740199071585e-08
2.591930237455277e-08
1.3819512361515989e-08
6.825249958848785e-09
6.205248348022356e-09
1.0762364845592499e-08
1.4608283585139777e-08
1.516542689748369e-08
1.549352429149705e-08
1.708366695437285e-08
2.45716414471224e-08
3.582002089799234e-08
4.010119375571743e-08
3.553618915191862e-08
2.1827655302191476e-08
5.4104320433056485e-09
2.268665773335069e-10
8.622250851670699e-09
2.7677234546757698e-08
4.446590553428794e-08
5.0414536015984864e-08
3.989210214297947e-08
1.9948762850923316e-08
5.867142648664535e-09
5.778308680982844e-09
1.690659918581835e-08
2.6371580488622584e-08
2.4930053373653235e-08
1.278167764483761e-08
3.01322180972945e-09
1.0256130880102316e-08
3.359255673262286e-08
5.584180408263309e-08
6.271906863639133e-08
4.406836371365814e-08
1.611622943687191e-08
8.066526150903903e-10
7.328907918175196e-09
2.7935525659415957e-08
4.6733906056814454e-08
4.76994680576411e-08
2.755255802646585e-08
7.232510409196731e-09
2.6713790672500556e-09
1.494182212683409e-08
3.1123456797446236e-08
3.418659773733419e-08
2.0563641655379705e-08
3.780915337751784e-09
3.0438457549263158e-09
2.3087626086664525e-08
4.2393210283354116e-08
4.3776227096220895e-08
2.6358628132595588e-08
6.285805355437993e-09
2.7271980398054795e-10
9.280211067460408e-09
2.2084711994764413e-08
2.2000394643120414e-08
1.1963693443949678e-08
1.8016366569482478e-09
3.783643929868628e-09
1.8034531774619384e-08
3.6730338596111865e-08
4.2223408947900726e-08
2.6595538674757868e-08
6.827969653552323e-09
1.508095653078747e-09
2.1402172264152744e-08
4.826145819870727e-08
6.11389912420345e-08
4.657705985163625e-08
1.7467741349218993e-08
9.253130183688886e-10
8.058934903382329e-09
3.3444676017252746e-08
5.154874955434965e-08
4.651260386836127e-08
2.430677365777876e-08
2.671220049384872e-09
4.203446342419923e-09
2.6204733293098307e-08
4.990456314981997e-08
5.0688328796425524e-08
3.061976815302393e-08
7.453372120541328e-09
4.77314044972944e-10
1.2552505403235457e-08
3.0711146901888544e-08
3.7135763431818915e-08
2.5935540937962914e-08
9.770287384718027e-09
8.292395281933207e-10
2.4726253654385487e-09
8.71173230585334e-09
1.206406153539479e-08
1.0139540416793539e-08
7.083427587073079e-09
4.172731623347601e-09
1.875001850055841e-09
5.001972185729079e-10
1.428380383157665e-10
4.3710985887688536e-08
2.8807981774232426e-07
8.31518813260035e-07
9.023006242530836e-07
4.610447941227325e-07
4.1746488167516375e-08
2.3329002534028257e-07
7.208425529460881e-07
8.825298631192559e-07
4.918288984033086e-07
1.9104150815200206e-07
4.721529791739715e-07
1.0515512910458542e-06
1.1491828620161091e-06
6.427880191018436e-07
1.0816719109920447e-07
2.024270334855721e-07
7.430979670301293e-07
1.098953679689139e-06
7.827734619321176e-07
2.848503768397521e-07
2.0615397407961582e-07
5.810604518347472e-07
8.986167852327073e-07
8.229756557226632e-07
5.302551386246743e-07
3.998704085815735e-07
4.852214358409507e-07
4.467434987444824e-07
1.83608720385129e-07
5.731773868401097e-09
2.3023705587851564e-07
7.391286793413196e-07
1.0207166286768244e-06
8.673806396174933e-07
5.794402511511067e-07
5.696353103658752e-07
9.599712468645233e-07
1.3239815840032478e-06
1.3210262604178432e-06
9.812500797582128e-07
5.653322144305565e-07
2.8058823073305247e-07
1.12870492523199e-07
2.4315884809021183e-08
1.0682257405771298e-07
4.0344036754703185e-07
7.519162689686096e-07
8.66439546230401e-07
7.423046751911447e-07
7.09072124057741e-07
1.0009127852998299e-06
1.409979934122476e-06
1.5775624287099754e-06
1.1805542421808451e-06
5.437101885278376e-07
1.0841855907075865e-07
6.113385949613358e-08
2.7370871959728295e-07
4.769441803423719e-07
5.715940977724003e-07
5.356892394263504e-07
4.3619027221743275e-07
3.58641700877077e-07
4.069317419727469e-07
7.26640050627405e-07
1.1147122742484578e-06
1.33438078868121e-06
1.1525191354958216e-06
6.630157056129996e-07
1.8851886160300376e-07
5.364139771991106e-08
2.890585377385973e-07
6.267223339580867e-07
8.462952963077072e-07
7.468122209743146e-07
4.4276981556243295e-07
1.6527936365804e-07
7.248478019170715e-08
2.68616050105356e-07
5.940396219349362e-07
8.595204781296632e-07
8.217287936722486e-07
5.664526514364365e-07
2.290724477195367e-07
3.6865576556671977e-08
3.615239493295889e-08
1.283149149724643e-07
1.568801826060579e-07
1.1287156725414748e-07
4.7853591102154256e-08
1.3128349600115728e-07
3.9722072146257054e-07
7.905646171513455e-07
1.0883179623746198e-06
1.1331672211878865e-06
9.372543314435613e-07
5.517063332417004e-07
2.2843758951228049e-07
3.427613608491849e-08
3.5953451640143616e-09
5.0747881404993574e-08
1.0639033028675992e-07
1.226288838819326e-07
9.596917348400611e-08
8.377626727161187e-08
8.157334967525162e-08
1.4307397406168566e-07
2.3760260606709738e-07
3.815634813828929e-07
4.899689513435091e-07
5.378217150530167e-07
5.270751030850147e-07
4.129242497661763e-07
2.7974368974863104e-07
1.7194566068107652e-07
9.134847986849361e-08
4.970808735012211e-08
2.763323982617193e-08
8.967822737783775e-09
2.154909330330319e-27
2.3878053328160884e-28
2.83704594678931e-29
2.0898038266825124e-28
9.119957881352452e-10
2.864939383046074e-09
3.0652817564260474e-09
1.2031620435032174e-09
1.5182538182058653e-10
1.639197725060752e-10
1.3325209972011444e-09
2.0057771113230694e-09
7.861986204766024e-10
9.927170638831448e-11
9.124312180462088e-10
3.4552624731595834e-09
5.792110888019194e-09
4.6388332687466e-09
2.1913240731648327e-09
6.978602540328901e-10
5.556123429291409e-10
1.340238421721299e-09
1.1441558219774328e-09
3.6069424575780395e-10
5.111008415177676e-10
2.2280338892010514e-09
4.3334451427981705e-09
5.050759724528133e-09
4.252610737412152e-09
2.962063379083019e-09
3.2995800329956328e-09
5.968588650189214e-09
7.945825794799563e-09
7.834870898946156e-09
5.897400822239609e-09
2.0711352358302332e-09
1.3612745835548267e-10
1.7577312791456646e-10
7.796914427384678e-10
6.177969082687675e-10
7.798625525005295e-11
3.7285892327877824e-10
1.4449042614224047e-09
2.592852057551337e-09
2.397732426025771e-09
6.126281450583893e-10
1.6316346358502274e-10
2.1785999116221183e-09
4.287481683355435e-09
3.7245977632110842e-09
3.4310988969460003e-09
4.30254021232664e-09
4.604023454687545e-09
5.742257798338678e-09
7.445767731980649e-09
9.016761208438927e-09
8.693610158506615e-09
4.69190878227423e-09
2.0401432368873705e-09
3.128611700640766e-09
3.497646279700073e-09
2.697855374739314e-09
1.7757994873347287e-09
1.2371624429833549e-09
8.751638210898564e-10
6.093814341520469e-10
2.7492134631267966e-10
3.751943112085144e-11
3.5080947214877976e-10
1.9057643711973676e-09
3.850025240208155e-09
4.117190402324447e-09
3.254284361125395e-09
2.6929989441775722e-09
2.9899238843562175e-09
3.6202724048175184e-09
3.1498443679318845e-09
4.2323635898394655e-09
7.142230651366362e-09
9.9002685193157e-09
8.270565478194231e-09
3.312560290936161e-09
1.7027109997801146e-09
2.1141234186057967e-09
3.612129001713962e-09
5.486220773734404e-09
3.9012505065466615e-09
1.4253535495078928e-09
5.036180143784506e-10
3.1639178840461734e-09
6.401204413175403e-09
8.957500382283081e-09
1.0378686928616026e-08
9.88010983373195e-09
8.205222820215518e-09
4.376626213254399e-09
1.3255778494056453e-09
9.581808495807139e-10
1.589512712400195e-09
1.583127065168601e-09
1.441567846135229e-09
3.73046223393264e-09
7.923350344551205e-09
1.0108918403203532e-08
8.09628934128076e-09
8.041553162806168e-09
1.2812208186760939e-08
1.511190521405911e-08
1.2482189727390653e-08
5.798890690644454e-09
1.5159128083488233e-09
1.8346755056707161e-09
2.58150854935827e-09
1.1114068271563213e-09
3.4038819373040546e-09
1.3972980272656991e-08
2.3460856674829503e-08
2.5503044164709508e-08
1.8505393759386533e-08
1.1929122335085262e-08
9.315199987085749e-09
7.552726480928413e-09
8.087856662591953e-09
9.535770131768217e-09
8.173561640832112e-09
2.4584894823505607e-09
1.067594124371348e-09
1.679414858404984e-08
4.9517380527297863e-08
7.261454287036382e-08
6.942864903507668e-08
4.6849310971882094e-08
1.8347090740630324e-08
3.347588516289928e-09
4.0491138554727414e-10
2.3036616640358943e-09
8.374634752866747e-09
1.130030236773929e-08
7.193355393458098e-09
6.105828566825654e-09
2.1447851057621928e-08
5.889219030856946e-08
9.872205577130537e-08
9.782661533205362e-08
7.307966142329264e-08
3.667644881729026e-08
8.823257032955456e-09
4.680145510677905e-10
8.061160565344112e-09
2.638347844716164e-08
4.6244591067057726e-08
4.445663989242975e-08
2.7648301708402314e-08
2.180589423282112e-08
4.340274430380633e-08
8.422357127108824e-08
1.1228271835155712e-07
1.0095028663177164e-07
5.696426196102418e-08
1.5170952967203558e-08
1.1203973880314697e-09
2.059872370166419e-08
5.3283179370051134e-08
7.606684041656673e-08
7.357359934791225e-08
5.6497971281511706e-08
3.524219571393991e-08
3.345366704107482e-08
5.79533783864068e-08
8.409562110967674e-08
8.608355051438318e-08
5.5180502329301856e-08
1.6042835680521798e-08
2.6410847506779134e-09
2.9171809948911615e-08
7.492698340582836e-08
1.1221433223248005e-07
1.264765659381371e-07
1.1420458218459e-07
7.968733506003214e-08
4.007003959749573e-08
1.6978172864936024e-08
1.60348980464997e-08
3.299361965692105e-08
4.699227454352618e-08
4.629728583819172e-08
4.44785679999932e-08
4.6082722605066273e-08
7.015918071509426e-08
1.1223231212034128e-07
1.2808909426837344e-07
1.1573749089508595e-07
7.18485265848582e-08
1.6959143865722785e-08
2.441177194735975e-10
2.871200478862592e-08
9.238728899259236e-08
1.4662728597197934e-07
1.655903608315326e-07
1.3085170254486592e-07
6.240759375570303e-08
1.3618239020919426e-08
1.4823685572746707e-08
5.474887179112205e-08
8.922073818806637e-08
8.404551073492685e-08
4.007390952948513e-08
5.498329760687116e-09
2.8544919595727615e-08
1.0692970924629326e-07
1.8139351231746225e-07
2.0958343688299024e-07
1.464072831858128e-07
5.3724142684204076e-08
5.197639978195152e-09
2.943204332818528e-08
9.788249243158399e-08
1.6265340040336452e-07
1.639592249734054e-07
9.082567698088686e-08
1.9476551461589376e-08
4.980768822051097e-09
5.0724480302378585e-08
1.1285447454506684e-07
1.2511695931960335e-07
7.669568134583894e-08
1.480319557615662e-08
9.148617225058103e-09
8.296661330754319e-08
1.5701055355528936e-07
1.6255128265525323e-07
9.601814281306452e-08
2.191191445918494e-08
9.71885438268761e-10
3.470628566305395e-08
8.509650368683901e-08
8.415524173331428e-08
4.7097925178422185e-08
6.86782816861217e-09
8.895771474596518e-09
5.6843823312142853e-08
1.2795410732608548e-07
1.5399625999450666e-07
1.0174174293845787e-07
3.115061291693678e-08
5.538043027652475e-09
7.001143588906867e-08
1.6486691035540002e-07
2.138562607997367e-07
1.6689389726851218e-07
6.701711379437081e-08
7.068531729543101e-09
2.6437152982803444e-08
1.1129027685209052e-07
1.7489803820078954e-07
1.6149894509877126e-07
8.74086627845401e-08
1.1254556068024188e-08
1.4577611636960683e-08
8.837741144872384e-08
1.713979991714641e-07
1.7397324023731837e-07
1.0492082923302451e-07
2.468626367319833e-08
3.4999040031479987e-09
4.835714800219094e-08
1.1102964978814863e-07
1.293706215550274e-07
8.561114255481511e-08
2.805122920466452e-08
8.096868171795569e-10
1.1404586973448837e-08
3.415525519325755e-08
4.250474492666802e-08
3.137794656568025e-08
1.948578218286627e-08
1.1061258592685224e-08
4.919464656150972e-09
1.413924045714781e-09
4.351433123682938e-10
9.02815575659987e-08
5.743911682981977e-07
1.6581800981384864e-06
1.7829971013429396e-06
8.994928685945073e-07
9.13666655383756e-08
5.387214371510876e-07
1.5606438576567566e-06
1.8851925441882914e-06
1.0239954396892482e-06
3.3140283704309003e-07
8.475483249253684e-07
2.0160715621733487e-06
2.260540497031595e-06
1.2941267113894942e-06
2.570866850503969e-07
4.667634038236585e-07
1.5391401593622795e-06
2.195945400887976e-06
1.5033044180530118e-06
5.070560442565509e-07
4.008238699733013e-07
1.2038019197835399e-06
1.7951780249106058e-06
1.5405629008543185e-06
8.939207747473245e-07
6.825939928607594e-07
9.86069932068502e-07
1.041608167678433e-06
5.33210995870346e-07
8.298687676608622e-08
3.877473438542904e-07
1.2566436236400877e-06
1.7492552889362922e-06
1.443793843327952e-06
9.11985365258008e-07
9.189912199660213e-07
1.6445685039616933e-06
2.282349773172175e-06
2.2105992110032076e-06
1.6057322160645157e-06
1.0004462326213977e-06
6.504026377770004e-07
4.277740827839247e-07
2.0575065502291766e-07
2.177992493439312e-07
6.877069769546498e-07
1.3208978527439494e-06
1.5246800879964975e-06
1.2309055992313599e-06
1.068459217398174e-06
1.540623320751283e-06
2.318815253772119e-06
2.69871807635132e-06
2.074952146429197e-06
1.0025865587511474e-06
3.000256115757989e-07
2.5450468040346074e-07
5.948185816585165e-07
8.810718606058073e-07
1.0084215901733575e-06
9.899488141569337e-07
8.796410534794158e-07
7.470396224468415e-07
7.197772732999862e-07
1.1275055551063934e-06
1.7219795124538195e-06
2.102216791552881e-06
1.8737729569635113e-06
1.1458666538751936e-06
4.07684242232949e-07
1.927257793590192e-07
5.519607663532753e-07
1.041086927102585e-06
1.3500073602826183e-06
1.1632362363827245e-06
6.738652806540231e-07
2.0176059032165695e-07
1.0721478022167167e-08
2.8196891335228334e-07
8.12109339725978e-07
1.2819925873351143e-06
1.2681647656093252e-06
8.772091596175085e-07
3.3240581571286596e-07
3.103428007975203e-08
4.672812601429282e-08
2.316814091503983e-07
3.0066231494680053e-07
2.2381129568799955e-07
6.382021323688662e-08
9.293559796822342e-08
3.9877497086247287e-07
9.239975446430459e-07
1.3410640642956493e-06
1.4191100554790196e-06
1.1734285421363438e-06
6.674824958251602e-07
2.6704573964220545e-07
3.842279813104603e-08
2.3086584974436172e-08
1.0134508592251863e-07
1.7653944877928442e-07
2.028944539261613e-07
1.6890092614496162e-07
1.568144038185129e-07
1.3566251694510815e-07
1.937212169012562e-07
2.89606281423539e-07
4.7257216855861455e-07
6.165790774076407e-07
6.796271107352896e-07
6.610650576684996e-07
4.916975541803876e-07
2.954736234311371e-07
1.6179210282942496e-07
7.683097486655362e-08
4.588877308367308e-08
3.326562047437314e-08
1.2910393648614779e-08
3.0778989100878606e-27
3.5012943380168395e-28
3.5179372542652605e-29
4.208005946432736e-28
1.8887013006636e-09
6.0494591331089744e-09
6.593529606608983e-09
2.564096048508138e-09
2.373151725744834e-10
5.488686425643605e-10