# vtk DataFile Version 4.1 
COMMENT
ASCII
DATASET STRUCTURED_POINTS 
DIMENSIONS 400 400 1 
ORIGIN 0 0 0
SPACING 0.002506265664160401 0.002506265664160401 0 
POINT_DATA 160000
SCALARS U double 1
LOOKUP_TABLE default
7.714895940406592e-07
3.667389985372596e-11
1.0494382085569164e-10
2.0011795009334417e-10
2.1131272016991105e-10
2.4601493202129694e-10
2.929388127686624e-10
2.8960096537510756e-10
2.4105068530990685e-10
1.281388119192383e-10
6.503875861542534e-11
2.6735967231209325e-11
6.82057740665489e-11
9.660908652497712e-11
1.4342818044113754e-10
2.080791381912032e-10
1.3447155435343673e-10
6.995691704030894e-11
8.912646541660747e-12
5.2437284293215905e-11
2.121487717394217e-10
3.5403567352595765e-10
3.810216066197626e-10
4.0050964653657227e-10
4.931040210976505e-10
5.55397017409812e-10
6.140797087625173e-10
6.526764790660148e-10
7.154753943648584e-10
6.541496274246589e-10
6.562358299237895e-10
7.981152745386352e-10
8.469602805888361e-10
1.0050205479562057e-09
1.1226919018411921e-09
9.872533090108102e-10
6.588408999592398e-10
3.3862333367701594e-10
4.104092453167568e-10
8.719402295587617e-10
1.2668640355793701e-09
1.6197327227224593e-09
1.9362024629334705e-09
2.2340435925970253e-09
3.003150455897314e-09
4.038121114113825e-09
4.728621689383731e-09
4.783672398397132e-09
3.9613987300093255e-09
2.930932039534346e-09
1.679406232793899e-09
5.584489756559726e-10
3.5643226088151714e-11
7.593743975550422e-11
4.600254279381679e-10
1.1391753386997419e-09
1.7254910954059009e-09
1.8671073761285603e-09
1.4323646573112522e-09
9.440049395693476e-10
6.19578669305189e-10
3.2089573959250823e-10
1.6359936380606288e-10
1.6329984390595102e-10
6.574527851555725e-10
1.8611389577209428e-09
3.778948105015202e-09
5.213384441001141e-09
5.354162209905296e-09
4.322041024233166e-09
3.1303405391205375e-09
2.6300557087215262e-09
3.5650694262797673e-09
5.030390775365817e-09
5.777913425664007e-09
5.471254539965299e-09
4.697533402726074e-09
4.7187728985736514e-09
5.722103920027174e-09
6.303555551105824e-09
5.755229144935616e-09
3.130484173613088e-09
8.224774866190158e-10
1.236379063314682e-10
5.329329060451481e-10
1.0457645056412114e-09
1.2251114374719629e-09
1.7561180436864335e-09
3.3706834293794635e-09
5.156723496339711e-09
5.248948380549201e-09
3.4141654579065734e-09
2.2182647972238686e-09
4.652077659560737e-09
1.013487408282777e-08
1.5057112425040405e-08
1.5238703195239747e-08
1.0567950240446078e-08
4.996602691390471e-09
1.426232846892737e-09
7.08920667767808e-10
7.288385671199779e-10
1.8263310165849346e-10
6.537835677966262e-10
3.818832492538073e-09
8.762195112378924e-09
1.0984680864669933e-08
8.349341719320139e-09
3.0346757675185993e-09
3.641832573082871e-10
3.3566590457589226e-09
9.124035609305516e-09
1.1533633367073245e-08
8.496327571478345e-09
2.7991436663671736e-09
3.980138587091819e-10
2.3992478259410318e-09
5.391058578246371e-09
5.4596336319820115e-09
2.3394612268580794e-09
8.37450263620324e-28
7.745270530412772e-29
6.652830862263545e-30
2.6950011741240302e-31
2.4454886697444946e-12
7.40526390280882e-12
1.4124118695039252e-11
2.1683840272246908e-11
3.001634617075557e-11
3.914944271489953e-11
5.0732050786528126e-11
6.495411642626883e-11
8.450481452184407e-11
1.0837322923640903e-10
1.384318063507259e-10
1.7205293173919846e-10
2.0812077469484383e-10
2.457261101348281e-10
2.812703543531115e-10
3.1567466316650496e-10
3.4814117113252667e-10
3.7581022399481166e-10
4.097899391782305e-10
4.350295796916513e-10
4.729442200583533e-10
5.05180356909004e-10
5.417624296266537e-10
5.823730335400142e-10
6.122938957778309e-10
6.470397567926755e-10
6.671162693712839e-10
6.81621645749054e-10
6.805044205793387e-10
6.770344219659675e-10
6.548155353028942e-10
6.272844265243865e-10
6.013741603948978e-10
5.626926511954533e-10
5.344368845791735e-10
5.052263202020484e-10
4.863314077608206e-10
4.715976782467139e-10
4.673226654750954e-10
4.78711015879257e-10
4.844722491223699e-10
5.120528402832228e-10
5.433683654183372e-10
5.692788616627211e-10
6.01035947249657e-10
6.31617575539751e-10
6.757909482784356e-10
6.770688903032651e-10
6.796605489477935e-10
7.318223126735407e-10
7.203276219544658e-10
6.733156698749711e-10
6.991761620998341e-10
7.306361642136732e-10
6.383826976538174e-10
5.549136069508688e-10
6.195010657936495e-10
5.977600311235022e-10
3.9775356720174325e-10
2.88056320782058e-10
3.583212447305191e-10
4.1122579771523206e-10
3.309330383644896e-10
2.334175240770343e-10
2.9569188678441574e-10
4.678563422751206e-10
5.075009000833534e-10
4.3632293193559883e-10
5.278386951834076e-10
7.174407575651227e-10
6.502285562113642e-10
3.9950897220787095e-10
3.313148838898995e-10
4.036229523078697e-10
3.838344316062224e-10
2.6587123245495706e-10
1.4200583862941602e-10
6.64075030887864e-11
3.0946191485491746e-11
1.1904304091933776e-11
9.056674208286773e-12
3.188812723152778e-11
7.9350486620571e-11
1.3187817514849203e-10
1.812376009633806e-10
2.0209451414235153e-10
1.9203291481289543e-10
1.991473708850475e-10
2.2150358845706114e-10
2.514774075592773e-10
2.8212409068136245e-10
2.48616958905138e-10
1.5716147236633547e-10
9.480955258760006e-11
8.50348001565962e-11
8.654532105731023e-11
6.941630882796005e-11
4.259022309794921e-11
2.3402593727359205e-11
2.2699263949586132e-11
4.374372524389164e-11
6.602022502301651e-11
7.496986184309295e-11
8.850915923819821e-11
1.1468115313950217e-10
1.3262162515317635e-10
1.265892208217062e-10
1.2439704202309823e-10
1.2848208299048884e-10
1.2615325710397064e-10
1.260583260525817e-10
1.1472511217885672e-10
7.937619897846683e-11
6.065465671547423e-11
7.582093340384519e-11
9.96629921661566e-11
9.927512340140237e-11
8.566134248652364e-11
8.773540785524435e-11
1.0782619913314723e-10
1.0951755019298763e-10
9.758618130575595e-11
7.700723209718079e-11
6.170105500737113e-11
6.802096228694156e-11
7.577999459114263e-11
6.807367735144142e-11
6.338908711587811e-11
5.3621349715348716e-11
4.2955081592801264e-11
5.791465225033908e-11
8.138866677697869e-11
7.824777910581939e-11
5.4586893191650425e-11
3.624746262862324e-11
5.0367142283863565e-11
9.389070760810937e-11
7.848908308097245e-11
3.756048070629761e-11
6.126907725597531e-11
1.0839997250943573e-10
1.255606574101698e-10
1.1196129660308785e-10
1.2024286211165462e-10
1.5910259744562145e-10
1.7908685710843615e-10
1.5630017421341283e-10
1.4779327449236505e-10
1.9184111507534546e-10
2.274006947552317e-10
1.8778667050797703e-10
1.3888316380239915e-10
1.349292475010478e-10
1.894542912223467e-10
2.5524136403169454e-10
2.602446025911196e-10
1.8760941780615436e-10
1.2138356361133044e-10
1.1621947609637518e-10
1.6391641071934805e-10
1.9749170247392765e-10
1.6189389372940522e-10
1.2134253323828742e-10
1.1136536477730033e-10
1.0255974234166882e-10
1.066545242242375e-10
1.662704862828196e-10
2.283516752330583e-10
2.04879847171281e-10
1.6324132171848342e-10
1.7629654313890855e-10
2.3122445178209192e-10
2.818452516251429e-10
3.1569406739804466e-10
3.606727608502099e-10
3.9294613737861753e-10
3.5778692653337754e-10
3.1241669916076724e-10
3.309469180982986e-10
3.645535052019264e-10
3.2976687561596674e-10
2.7861517307533066e-10
2.547259142454885e-10
2.3563412292111326e-10
2.1989294284348644e-10
2.2241237019476675e-10
1.9568830919408575e-10
1.9200632477459707e-10
2.822095709179574e-10
3.661003663785867e-10
2.783587043849892e-10
2.2912507855256632e-10
4.4352396761777695e-10
8.999486122754755e-10
1.1836430765967847e-09
1.1299736242337868e-09
9.704135344263834e-10
1.131689908378e-09
1.6470419681214218e-09
2.024722957876487e-09
1.958975201513429e-09
1.612479060996028e-09
1.3570813410148582e-09
1.3752780893126714e-09
1.562013500670037e-09
1.5555458489693377e-09
1.115637592525306e-09
6.806448961668148e-10
6.408428814142269e-10
8.784664937415014e-10
1.055574373067406e-09
1.190444374636459e-09
1.4111895257618727e-09
1.9464032796010276e-09
2.721736681132105e-09
3.3569455484885838e-09
3.3936092313728e-09
3.262049744419491e-09
3.827073493957049e-09
4.993439759010073e-09
5.466078151762418e-09
4.433281516031488e-09
3.2658130624062935e-09
3.207450781467257e-09
3.6877073533169453e-09
3.4992735333196895e-09
2.4220713450777357e-09
1.268562927724916e-09
5.650479359088681e-10
2.4847892422858333e-10
2.544630612049775e-10
6.658091094681658e-10
1.7148347155158712e-09
2.8315836325632045e-09
2.9099421461038526e-09
2.3972624340219047e-09
2.2796994503830534e-09
2.923636599495394e-09
3.965965407799549e-09
4.608489979825427e-09
4.2036871868424536e-09
2.5667565487707737e-09
9.755444740006878e-10
8.515478971111077e-10
2.142745326305555e-09
4.043987449478432e-09
5.1083582467816026e-09
4.762933486445519e-09
3.377352963970259e-09
1.5624031822603397e-09
7.16564505282605e-10
1.5685871971143542e-09
2.922287531515546e-09
3.1473426765244596e-09
2.0806805735054717e-09
8.107182704822174e-10
2.774452052353164e-10
4.982265278070229e-10
1.0136568876796482e-09
1.9307022026986315e-09
3.1843372814111508e-09
4.0728296855281664e-09
3.747505392884062e-09
1.9157461284397166e-09
3.8596741249022274e-10
1.5615699381486643e-09
5.446504038241246e-09
8.877761673855822e-09
8.567462037861671e-09
5.270265391835555e-09
2.076015918341125e-09
7.78053654078386e-10
1.066997967385091e-09
1.1258354301139371e-09
4.1887217629663864e-10
4.361280111209699e-31
3.492956346351197e-11
2.3151839051211988e-10
6.624990687003126e-10
1.2633231236107197e-09
1.3339945046369363e-09
1.5530658405757907e-09
1.8492912594852269e-09
1.8282197874189045e-09
1.5217270843128842e-09
8.08926555834047e-10
4.105826971117645e-10
1.6878128933226858e-10
4.3057572547514026e-10
6.098827861317955e-10
9.054466970313334e-10
1.3135812489350514e-09
8.489044786004055e-10
4.416305029724492e-10
5.626458028076521e-11
3.310309432815447e-10
1.3392724083922025e-09
2.2349891788308555e-09
2.4053484758040345e-09
2.5283743785242586e-09
3.1129127192614037e-09
3.5061617138840425e-09
3.876619241092387e-09
4.120276506212062e-09
4.516719313055199e-09
4.129576333564464e-09
4.142746305855586e-09
5.038415999970361e-09
5.346769276562197e-09
6.3445867666781545e-09
7.087433384286137e-09
6.2324240956535624e-09
4.159191833170227e-09
2.1376927328547064e-09
2.5908694822750316e-09
5.504465011230691e-09
7.99757657857121e-09
1.0225198697716868e-08
1.2223038174611175e-08
1.4103277234079841e-08
1.8958566249791573e-08
2.5492224845502984e-08
2.9851280808239385e-08
3.0198810021062894e-08
2.500788467565542e-08
1.8502659144510284e-08
1.0601911157069481e-08
3.5254283984711595e-09
2.250118577381158e-10
4.793849004858214e-10
2.9040911137263012e-09
7.191491550633884e-09
1.0892839944612073e-08
1.178684831334277e-08
9.04236422659735e-09
5.95940178481951e-09
3.911333588336798e-09
2.0257803355785156e-09
1.0327852109608225e-09
1.0308943740038358e-09
4.150428813516662e-09
1.1749170329022975e-08
2.385609347769046e-08
3.291153598923528e-08
3.380025092292309e-08
2.7284580741313102e-08
1.9761503583273755e-08
1.6603259186207256e-08
2.250590035224744e-08
3.175631663403221e-08
3.647534683149315e-08
3.45394422253188e-08
2.9655023793864928e-08
2.978910644974644e-08
3.612302741709075e-08
3.9793669108454233e-08
3.6332143403848163e-08
1.976241033239697e-08
5.192212028008309e-09
7.805128223155573e-10
3.3643481917831564e-09
6.601798995100815e-09
7.733996911503315e-09
1.1086184579365619e-08
2.127876243345641e-08
3.255384153172649e-08
3.313604731956222e-08
2.155325980900005e-08
1.4003667393741519e-08
2.936806656981334e-08
6.398037146466424e-08
9.50539334052097e-08
9.620029643221508e-08
6.671433472957121e-08
3.15430160891853e-08
9.003654766063225e-09
4.475340028112806e-09
4.601079587275841e-09
1.1529431535467035e-09
4.1272654384523615e-09
2.410787933200883e-08
5.531479656819295e-08
6.934511039788663e-08
5.270849744375644e-08
1.915758215581913e-08
2.299049785263284e-09
2.1190228006065196e-08
5.759905675881018e-08
7.281058858076121e-08
5.363640334019639e-08
1.767069330052943e-08
2.5126187380507383e-09
1.514619381404938e-08
3.403317373309975e-08
3.446608068146033e-08
1.4768767435914353e-08
5.2867335609422435e-27
4.889506091346151e-28
4.199860663098063e-29
1.7013252933286783e-30
1.5438107294099204e-11
4.674863559463024e-11
8.916404420364392e-11
1.3688775450594612e-10
1.894899692213107e-10
2.471462266884912e-10
3.2026598731857586e-10
4.1004836006331585e-10
5.334698171357654e-10
6.841485554437245e-10
8.739051240755732e-10
1.0861516772971146e-09
1.3138440957102208e-09
1.551242539029824e-09
1.7756295348554292e-09
1.992820240914184e-09
2.1977778183690555e-09
2.3724495770645025e-09
2.586959869144228e-09
2.7462950086324825e-09
2.9856460607309912e-09
3.1891493300794466e-09
3.4200880257449726e-09
3.6764584061312077e-09
3.865345595540119e-09
4.084692483959388e-09
4.21143335138376e-09
4.303004234386341e-09
4.295951311894763e-09
4.27404558337254e-09
4.1337801384724005e-09
3.959979205960813e-09
3.796410478992431e-09
3.552218266324726e-09
3.3738426467211702e-09
3.1894394914113675e-09
3.0701579387347172e-09
2.9771454869106063e-09
2.9501577904765904e-09
3.0220512233178115e-09
3.058421269948534e-09
3.2325345794248005e-09
3.4302261258990147e-09
3.593796305558015e-09
3.794275375735115e-09
3.987333910256992e-09
4.2661956675487586e-09
4.2742631782835404e-09
4.290624040927851e-09
4.619915652461539e-09
4.547350904634635e-09
4.250569500865496e-09
4.413824010520358e-09
4.612427624642513e-09
4.030041399499031e-09
3.503109995581445e-09
3.910843685704098e-09
3.773594869107648e-09
2.5109755457230475e-09
1.8184686120183495e-09
2.2620435295179266e-09
2.596024289858023e-09
2.0891447245866925e-09
1.4735397573527654e-09
1.8666711200299247e-09
2.9535268347911653e-09
3.203798669881924e-09
2.7544598024252956e-09
3.332188985798967e-09
4.529126439832327e-09
4.1048230321701145e-09
2.5220572289728945e-09
2.0915552743733188e-09
2.5480283434480263e-09
2.4231055378087534e-09
1.6784165323828157e-09
8.964676059523572e-10
4.192234339507378e-10
1.9535998281549034e-10
7.515059305184155e-11
5.7173811469688976e-11
2.01306322003793e-10
5.009310987383759e-10
8.325327542429975e-10
1.1441335075537845e-09
1.2758009601428442e-09
1.2122831643255327e-09
1.2571959613218538e-09
1.3983283614989658e-09
1.5875498619045602e-09
1.7810190805930446e-09
1.5694921568011954e-09
9.921434938169605e-10
5.985225216790051e-10
5.368155595204518e-10
5.463513157166311e-10
4.382177013964002e-10
2.6886750366112285e-10
1.477380604510968e-10
1.4329801511098487e-10
2.761494388069903e-10
4.167785891203458e-10
4.732766850555017e-10
5.587488152102458e-10
7.239698014890556e-10
8.372260742661542e-10
7.991441536820138e-10
7.85305164395551e-10
8.110935892349746e-10
7.963919615602491e-10
7.957926720296876e-10
7.242473101827154e-10
5.01093418091923e-10
3.829063327282073e-10
4.786494084021293e-10
6.291617644144917e-10
6.267131905648608e-10
5.407708539503073e-10
5.538642058408441e-10
6.806952131601391e-10
6.913725307273198e-10
6.160510805298817e-10
4.861383846289046e-10
3.895121327478632e-10
4.2940902856172145e-10
4.783909660749109e-10
4.2974181310161003e-10
4.0016849813177574e-10
3.3850582110709977e-10
2.7117081614847035e-10
3.656089788527189e-10
5.137979111381296e-10
4.939698246431973e-10
3.446011933607855e-10
2.2882633811507426e-10
3.1796235913727934e-10
5.927219520196482e-10
4.954931507190834e-10
2.371152802038335e-10
3.8678510360345513e-10
6.84317382853759e-10
7.926509433463705e-10
7.067996393234269e-10
7.590802728287636e-10
1.0043976079398507e-09
1.130556092616006e-09
9.867062110924333e-10
9.330030669075948e-10
1.2110723531842212e-09
1.435556160131694e-09
1.1854770801316778e-09
8.76754495186195e-10
8.517938462789447e-10
1.1960045905768565e-09
1.6113113148159596e-09
1.6428962224272669e-09
1.1843581028643681e-09
7.66281398869709e-10
7.33681069079456e-10
1.034786694069338e-09
1.2467439044832554e-09
1.022018761557044e-09
7.660223785318961e-10
7.030375857182318e-10
6.474486371230169e-10
6.732985553136554e-10
1.0496477202425194e-09
1.4415595977402648e-09
1.2933844683726752e-09
1.0305249297204141e-09
1.1129411402431983e-09
1.4596951275199174e-09
1.779258799582153e-09
1.9929427377436214e-09
2.2768883981974364e-09
2.4806267576315366e-09
2.2586704361322498e-09
1.972253064094613e-09
2.0892323458553617e-09
2.3013871204462843e-09
2.081782864416652e-09
1.7588676606505708e-09
1.6080573356818021e-09
1.487532907763249e-09
1.3881605287452224e-09
1.4040654029938597e-09
1.2353592764160285e-09
1.212115304269879e-09
1.781558708144955e-09
2.3111522889010818e-09
1.7572486013565922e-09
1.4464420098225196e-09
2.7999191671999115e-09
5.68127892284861e-09
7.472211603551624e-09
7.133402115596785e-09
6.126116407517767e-09
7.144236833047466e-09
1.039759903054447e-08
1.278185855090833e-08
1.236680002717155e-08
1.0179407110377623e-08
8.56710873724733e-09
8.681982854678719e-09
9.860823448711794e-09
9.819993858237065e-09
7.042900287301558e-09
4.296838119189555e-09
4.045572275322049e-09
5.5456646160087815e-09
6.663727634452192e-09
7.515147467526254e-09
8.908687895616785e-09
1.2287434834530123e-08
1.718203131727984e-08
2.1192036667023342e-08
2.1423490558904384e-08
2.059296964900623e-08
2.4159903888773703e-08
3.152304883680883e-08
3.4506764242606915e-08
2.798683001732807e-08
2.0616727071226522e-08
2.024829226054333e-08
2.3280100412689228e-08
2.209053794734418e-08
1.5290276238809973e-08
8.008301502202434e-09
3.56708692573162e-09
1.5686207587148649e-09
1.606397972670967e-09
4.2031813913217285e-09
1.0825567363003192e-08
1.7875483322641286e-08
1.8370152201877204e-08
1.513366024812142e-08
1.4391497760236885e-08
1.8456603815171628e-08
2.5036713622023197e-08
2.9092902229540654e-08
2.6537425678641273e-08
1.6203658388609545e-08
6.158507477919215e-09
5.375730406896286e-09
1.3526921085629473e-08
2.552925839053734e-08
3.224851690633701e-08
3.006788749754724e-08
2.1320866488931402e-08
9.863283466734395e-09
4.5235947532939394e-09
9.902322488262372e-09
1.8448087293922695e-08
1.9868836250449112e-08
1.3135112967782196e-08
5.117977359632863e-09
1.7514817793466618e-09
3.1452505538923433e-09
6.399107051694532e-09
1.2188315622549714e-08
2.010237921738636e-08
2.571133632867967e-08
2.3657599013371914e-08
1.2093899532234416e-08
2.4365708170189403e-09
9.858023286158878e-09
3.4383194966467815e-08
5.6044355857411344e-08
5.4085467585686865e-08
3.327061932208254e-08
1.3105665500775658e-08
4.911769144889578e-09
6.735843558333824e-09
7.107278140615243e-09
2.644295056519716e-09
3.781561232528733e-10
8.712631285474814e-11
9.942745809376312e-10
2.748515147172194e-09
3.776102435922593e-09
5.01006880067909e-09
5.872297963851476e-09
6.638297522105731e-09
6.917959422460579e-09
5.371053844057778e-09
3.1684700800179517e-09
1.528862159276504e-09
6.84888572128069e-10
1.7061948752643681e-09
1.842144578129528e-09
2.4517281101970855e-09
3.444667123240458e-09
2.1821770759926526e-09
1.4046177701688212e-09
4.6394957088141345e-10
9.91822734345444e-10
3.732520257480282e-09
5.491834263047814e-09
5.836452086659707e-09
5.664987499987614e-09
7.630945167102645e-09
9.711802847751341e-09
1.0411363748067541e-08
1.247842786526927e-08
1.259050736163066e-08
1.2781084486465609e-08
1.2206888499478875e-08
1.2947195175482088e-08
1.594463900336133e-08
2.055812530511328e-08
2.4252145326038633e-08
1.9661790779923354e-08
1.199411902540758e-08
4.473577927833154e-09
5.219309126883331e-09
1.4361088581803794e-08
2.36552922989247e-08
3.034289178286262e-08
3.4893182888095455e-08
3.923674613405674e-08
5.298085585522121e-08
7.579182302916826e-08
9.415827203857425e-08
9.984056836763208e-08
8.395565725661885e-08
5.9011739228434614e-08
3.3841542866628306e-08
1.2221561395486417e-08
2.212120909480081e-09
2.498694597209462e-09
9.701164562910751e-09
2.181153059521671e-08
3.454057698340975e-08
3.72126662895913e-08
2.9845514727310345e-08
2.0843042217489186e-08
1.4241343695344722e-08
7.825881532478337e-09
3.309958464339037e-09
1.777568265073117e-09
7.481025789735012e-09
2.7413488254289494e-08
6.384739377974094e-08
9.373074521299168e-08
9.720177234635412e-08
8.104858732731016e-08
5.907983951131022e-08
5.505390169792876e-08
8.033328617189971e-08
1.1119442716622585e-07
1.250198298293587e-07
1.1319416676019601e-07
9.92320547280064e-08
1.0800728787297688e-07
1.391501159021329e-07
1.5760510087094475e-07
1.4115792792772737e-07
7.8116469963886e-08
1.8970401415260188e-08
7.088978129521386e-11
9.369404945171783e-09
1.928162751824027e-08
1.6860198739645267e-08
2.6941128196750987e-08
6.67620995059955e-08
1.1764509111027806e-07
1.2010252021011426e-07
7.188191446480347e-08
3.583406744893259e-08
8.321318346469107e-08
2.1591400236011774e-07
3.328238023690277e-07
3.357904791959991e-07
2.2709236816782858e-07
9.675574574331264e-08
3.421411409990028e-08
3.99008507699958e-08
4.807625826002504e-08
2.292946055891338e-08
6.108732667989616e-09
6.514220789927114e-08
1.8566936404488424e-07
2.609198536531527e-07
2.0983940822359984e-07
8.10369352278145e-08
6.508402415798088e-09
7.124658684611349e-08
2.097466073365522e-07
2.726952905178315e-07
1.899712173647344e-07
5.6777365909795726e-08
9.53945810277903e-09
8.19026179515856e-08
1.708181091886241e-07
1.6462216900044576e-07
7.061554723052866e-08
1.5253934796360387e-26
1.4068953411758342e-27
1.1607462039858053e-28
8.910424870831508e-30
4.671856489932495e-11
1.2591182807031206e-10
2.2403495660167114e-10
3.2570256730391015e-10
4.3171834750117234e-10
5.518354383529099e-10
7.183223555340339e-10
9.383988061497442e-10
1.2618689237305346e-09
1.6555689540807522e-09
2.173505060474662e-09
2.6973765799289403e-09
3.322048149955135e-09
3.845751523870827e-09
4.450300997232275e-09
4.8891809552087875e-09
5.417074833933274e-09
5.816746909476673e-09
6.334869077464791e-09
6.846237834316302e-09
7.456351476743763e-09
8.165229491183751e-09
8.855756807159918e-09
9.717676753218757e-09
1.0332369392945087e-08
1.1161977970653388e-08
1.1509316345245675e-08
1.203313262644753e-08
1.2088248880071689e-08
1.207191022879782e-08
1.1988384241485983e-08
1.1424222666515661e-08
1.1241822511350798e-08
1.0598879808894437e-08
1.0243352660806835e-08
9.849840983878587e-09
9.540204885129267e-09
9.512738597257916e-09
9.372952587769913e-09
9.783889315029016e-09
9.947062203355329e-09
1.0534847180096114e-08
1.1351477775290757e-08
1.1758013520825054e-08
1.2710053671895523e-08
1.329119694533799e-08
1.4185025741223447e-08
1.4456973976115494e-08
1.4205659573938382e-08
1.540169065789098e-08
1.4868943190329649e-08
1.3559961042358862e-08
1.4039837945374071e-08
1.4205036687200322e-08
1.2177902600483898e-08
1.01320957584186e-08
1.1507865313587227e-08
1.1446813666530337e-08
7.278935229815352e-09
5.426431421252363e-09
7.202209113120952e-09
8.123341537041537e-09
6.385022831412993e-09
4.426200255259633e-09
5.90599260785757e-09
9.294410490728391e-09
9.015599199343529e-09
6.91511532524011e-09
8.717881803177063e-09
1.1675031093110534e-08
1.032214995232271e-08
6.47199863881304e-09
5.5147674949934385e-09
6.650811472772729e-09
5.809987644472926e-09
3.861891712763011e-09
2.5325687253785725e-09
1.5759634180151749e-09
9.843353510611785e-10
6.736904873798355e-10
6.374038557500623e-10
1.0114953899846573e-09
1.7657380453853814e-09
2.642504014658102e-09
3.5127388160401654e-09
3.984632347076678e-09
3.733167274574296e-09
3.539463840838832e-09
3.370388891608069e-09
3.0812603144881415e-09
3.2384100620704186e-09
2.811139299100647e-09
1.6003498237442982e-09
1.0095231539851178e-09
1.0003365665172444e-09
8.980092444742532e-10
5.107950037302411e-10
1.5363133860948617e-10
1.7258768118196313e-10
5.483395051554762e-10
1.278753989349678e-09
1.7059771259649207e-09
1.5094160513320542e-09
1.5915386980925588e-09
2.07572197342398e-09
2.2126601004351852e-09
1.8491407147882116e-09
1.6827036672965308e-09
1.9592664851862033e-09
2.3996437059685487e-09
2.513960239112403e-09
2.068724357412189e-09
1.25973796678089e-09
1.229793727130383e-09
2.125387496678718e-09
2.3760407154407355e-09
1.7064102504075643e-09
1.4955457499959009e-09
2.1497888468630064e-09
2.8771292976732073e-09
2.4327169985626526e-09
1.6525884994110858e-09
1.5313457491294683e-09
1.6980813351410259e-09
1.6609299625738825e-09
1.572762892193535e-09
1.4077271578914672e-09
1.3032558215382123e-09
1.1089470091647144e-09
8.804499795339318e-10
1.2540146305284628e-09
1.9045829136404285e-09
1.474755499347328e-09
8.084184957279535e-10
7.961444680607612e-10
1.4420032853482772e-09
2.120943298464827e-09
1.453891013341265e-09
7.804390140436375e-10
1.583738268353514e-09
2.693616441339663e-09
2.5696291766521556e-09
2.590100577644249e-09
3.4772524217594543e-09
3.932460841332793e-09
3.851143114035694e-09
4.074820323525353e-09
4.1739626330119845e-09
4.719148021894113e-09
5.272164701250158e-09
4.77528974557519e-09
3.736742563944897e-09
3.4148744035370983e-09
4.46023367776726e-09
6.112023394807599e-09
5.6917699108696405e-09
3.707788246789643e-09
3.1978578715691353e-09
4.0378611113974345e-09
4.297893889785977e-09
3.797368409998746e-09
3.278036203630712e-09
2.6925980573578545e-09
2.4527103562025096e-09
2.72138157489643e-09
3.281443032183845e-09
4.336739446994169e-09
5.0550660523242724e-09
4.266516177076042e-09
3.694628814455436e-09
4.309285181885681e-09
5.18756578781812e-09
5.8169011037341075e-09
6.561279608675554e-09
7.033603352697315e-09
7.307306738065558e-09
7.642234125774256e-09
7.490369639649308e-09
7.878197705243774e-09
9.566704523135033e-09
9.887523362813458e-09
7.807835826661113e-09
6.546000473050554e-09
7.075568836326318e-09
7.05048588894534e-09
6.70491835771514e-09
6.516476123811415e-09
6.815981714723763e-09
8.194651615887067e-09
9.48981221464162e-09
7.49854742041659e-09
6.297262604667563e-09
1.1055370175441723e-08
2.1159813884968786e-08
2.6050122495589608e-08
2.342617578141312e-08
2.0500752806600617e-08
2.6008988028145063e-08
3.747704153229892e-08
4.560598062174077e-08
4.504971345887483e-08
3.692790820981813e-08
3.1107020054531546e-08
3.4068166194561864e-08
3.9898381448095964e-08
3.7527734243285516e-08
2.6517540382763765e-08
1.7335635009771855e-08
1.6085207159560087e-08
1.9815073018044504e-08
2.2453962733217992e-08
2.4079099800901434e-08
2.9346174358730645e-08
4.324007596445909e-08
6.076135283053005e-08
7.095132746852854e-08
6.976636850954109e-08
7.284070816170086e-08
9.0672966291405e-08
1.1562319399696217e-07
1.2583803636997096e-07
1.0266284964802625e-07
7.5623617655282e-08
7.826434586468378e-08
9.58012137580932e-08
9.200781629908092e-08
6.402389306446159e-08
3.613212304562434e-08
1.7995467858412292e-08
9.139716541321179e-09
9.820044468261008e-09
1.9765401619689232e-08
4.055385892941653e-08
6.118594201909233e-08
6.29501408333771e-08
5.162064882012163e-08
4.672704600543712e-08
5.976723089273872e-08
8.673525293303972e-08
1.0677000888257785e-07
9.847022075711161e-08
5.918507379380207e-08
2.1841474381858532e-08
1.8980404511672915e-08
4.921772589596546e-08
9.882821105256724e-08
1.325103985674126e-07
1.2432372225902714e-07
8.507440822614022e-08
3.8157751838151966e-08
1.972174802475276e-08
4.336343202644505e-08
7.69874629631588e-08
8.229006755262094e-08
5.1971050077187994e-08
1.7089598738223492e-08
5.845285943256541e-09
1.4267426578443063e-08
2.762310292661857e-08
4.606134786338325e-08
7.37930318637272e-08
9.827518903117997e-08
9.270510197792957e-08
4.7308313553353674e-08
7.658537425304215e-09
3.755925338007316e-08
1.3529094462041368e-07
2.184409229993021e-07
2.1044698728778075e-07
1.2957946391099633e-07
5.313348572998637e-08
2.7489243093127967e-08
3.715511928210896e-08
3.548346013974564e-08
1.287319753947432e-08
1.8595770605011993e-09
1.594477302028535e-10
1.1727403192224666e-09
3.193216986333766e-09
3.3306486039927767e-09
3.5630289657177972e-09
3.932126728152642e-09
5.0051241480156415e-09
6.565617331609513e-09
5.402793754748696e-09
2.801911712699944e-09
1.5119475640979163e-09
9.072177160393328e-10
2.8130029373448735e-09
2.8121960928942678e-09
3.1945270864822616e-09
4.600285792439418e-09
2.8084921741223907e-09
1.615158483549562e-09
2.687774802857025e-10
1.0716967920294154e-09
4.9455374845584395e-09
7.341821901418856e-09
7.2900796594950235e-09
6.087680479526098e-09
7.021032428060916e-09
8.728024173395832e-09
1.1199645977667673e-08
1.3797059736206865e-08
1.579729179257346e-08
1.745199512690192e-08
1.7652298208695346e-08
1.9497171697042607e-08
2.4317136439288246e-08
3.215480867352875e-08
3.614663599306438e-08
2.7344235529776167e-08
1.4895495856934126e-08
2.77001879752219e-09
1.97835333878995e-09
1.3821910656448814e-08
2.775497157880246e-08
3.719808913812262e-08
4.583604993536765e-08
5.402023766977942e-08
7.31075404308809e-08
1.0903491332053385e-07
1.3421094814779108e-07
1.4506229799880373e-07
1.24568646492365e-07
8.865811031117264e-08
5.613263566700789e-08
2.6476500162472955e-08
1.2096255944520717e-08
9.055432666748378e-09
1.769543877841257e-08
3.560932104434093e-08
5.3684337746547706e-08
5.761548185138305e-08
4.384799092990844e-08
2.957641289009317e-08
2.130474308146806e-08
1.5141428538238894e-08
7.473298528033862e-09
1.1060266614644329e-09
3.498125768715282e-09
2.952436440262321e-08
8.554596121118753e-08
1.3568241361800236e-07
1.4428607364502845e-07
1.2367050604401035e-07
9.665169635894986e-08
1.0072517398398432e-07
1.4759204480550087e-07
1.979193307761204e-07
2.1705050760179059e-07
1.8671699190131448e-07
1.5758391816145688e-07
1.7059451616832214e-07
2.3039590520953265e-07
2.6129605685356953e-07
2.2645246066205596e-07
1.2275813774820875e-07
2.997313848814463e-08
9.613118807016663e-09
3.656790806572093e-08
4.872184472194907e-08
3.223334093266495e-08
3.6648518377557304e-08
1.0680881199312504e-07
1.9858027560639164e-07
2.095587231291007e-07
1.278416839220241e-07
5.512452147795518e-08
1.2146316458869477e-07
3.1476305900789003e-07
4.829447601138517e-07
4.710075852737227e-07
2.95412703489435e-07
1.1236058596563613e-07
5.884293221219768e-08
1.0552476194968714e-07
1.2551447274116864e-07
6.138132944642714e-08
4.056837947436059e-09
7.984082578108833e-08
2.763065345151595e-07
4.061362221284464e-07
3.270019186489128e-07
1.2204847544455085e-07
5.728167742557867e-09
1.0949933614075395e-07
3.269223279721719e-07
4.0524653170226223e-07
2.7797748846341125e-07
6.746098075286745e-08
1.5398034355984907e-08
1.54091776625526e-07
3.035284494695742e-07
2.9126008425205897e-07
1.206545747159088e-07
3.00894407514303e-26
2.763968593456122e-27
2.296439465703212e-28
1.9758275338799939e-29
5.2658978130314066e-11
1.254363774298753e-10
2.0234994621454616e-10
2.766409136180783e-10
3.415570630300113e-10
4.318655791628862e-10
5.565426915168191e-10
7.683909656186736e-10