# vtk DataFile Version 4.1 
COMMENT
ASCII
DATASET STRUCTURED_POINTS 
DIMENSIONS 400 400 1 
ORIGIN 0 0 0
SPACING 0.002506265664160401 0.002506265664160401 0 
POINT_DATA 160000
SCALARS U double 1
LOOKUP_TABLE default
7.35246149039602e-07
2.94996169265569e-11
1.0763266054985553e-10
1.4659588551795427e-10
2.1796552144211404e-10
2.390456488931663e-10
1.853405069123717e-10
1.289867493885034e-10
1.0585715301032275e-10
1.0026500222927069e-10
9.98990506920991e-11
7.016352533531884e-11
2.898513174607657e-11
9.394451718962707e-12
9.74711765627442e-13
1.6193565815724113e-12
1.6018048051090169e-12
2.4767974604539735e-12
1.2999725139744274e-11
3.706217294762556e-11
5.477257698319689e-11
6.113478186870036e-11
4.038629972776526e-11
2.2641794402042e-11
8.51517009084584e-12
2.634350401214016e-12
1.019388338597966e-11
4.027667128220168e-11
6.8970222057367e-11
9.577544639611963e-11
9.550653636150801e-11
1.0643173269684076e-10
1.2798515503666663e-10
1.3194907230909457e-10
1.2815364554079098e-10
1.202129397990702e-10
1.3299918819454298e-10
1.315146422236297e-10
8.1050119779242e-11
9.069995123552427e-11
1.1423769829935571e-10
1.112786321744538e-10
1.1031030686067438e-10
1.7635665549589422e-10
3.2636619806696117e-10
5.294660345752996e-10
8.261205875390661e-10
8.038596163864704e-10
4.0046260233799103e-10
2.2879688668491372e-10
1.3987780413254348e-10
8.83553304779285e-11
4.798265745027807e-11
7.7757183598603e-11
9.638995935695978e-11
1.2513131336302541e-10
1.8192776605173327e-10
1.3311894865737275e-10
5.525115488166008e-11
4.2659222191277446e-11
1.4748047736633595e-11
1.3476641857808694e-12
4.0809404624834475e-12
7.90161563412223e-11
4.288085497836137e-10
8.98761333514425e-10
1.45066166284079e-09
1.5871402355623638e-09
1.2478517637135882e-09
5.063099181813406e-10
3.576915662101999e-11
1.7197203155635296e-10
7.005947687908125e-10
1.2070987189226998e-09
1.1272877098418657e-09
6.821330429949659e-10
3.0941162635515554e-10
2.6075929066343486e-10
5.820955683518396e-10
1.2199064700034872e-09
1.8525117334196082e-09
2.358489884283824e-09
2.0712546273380004e-09
1.1995942845517198e-09
6.365644636814714e-10
6.464844376820679e-10
1.0602568777602077e-09
1.1441697779813326e-09
1.1306493660882442e-09
1.7981144126509243e-09
3.0695446874166282e-09
3.6506326071516198e-09
2.68475507607961e-09
1.4638251944471155e-09
2.177758966126869e-09
5.280897880180406e-09
7.798394892028454e-09
6.725600412507629e-09
3.0528257401807313e-09
7.305765408146112e-10
2.171942687793343e-09
5.398010260138956e-09
6.134610703948678e-09
3.9702309590673745e-09
1.8767318412922037e-09
3.799824810303131e-09
8.089802060007763e-09
9.46706080993858e-09
5.8845450759922375e-09
1.8862018318060612e-09
3.159944950787199e-09
9.16281435326568e-09
1.3697705483667802e-08
1.0425230426208107e-08
3.3269657473314033e-09
2.9895782447281427e-10
4.550043139664429e-09
1.0821692425175811e-08
1.0710849123209165e-08
4.7612392673731244e-09
1.7465004623648528e-27
1.5964939701184576e-28
1.3752713308395014e-29
1.155693163015668e-30
7.62475940812779e-13
1.3452378954898882e-12
1.6859990269219745e-12
1.752364906648207e-12
1.5803755372659055e-12
1.6956802090817383e-12
2.1553321463027554e-12
3.636676861832787e-12
5.636356124398613e-12
8.998519315767119e-12
1.1603384280417187e-11
1.570107963898194e-11
1.7450315155801193e-11
2.050517668528752e-11
2.1279151388628533e-11
2.2623733749461952e-11
2.3915261534497123e-11
2.4973288115960634e-11
2.7569667220627022e-11
3.022565658856775e-11
3.3279239409821284e-11
3.702273181763139e-11
4.062347008649404e-11
4.130916085524698e-11
4.5561588524984194e-11
4.2369441734645545e-11
4.2951834803826625e-11
4.042749086400556e-11
3.6238493493664244e-11
3.3952629772590054e-11
2.976636411556265e-11
2.8037740687578848e-11
2.3841583971088275e-11
2.4558344995977147e-11
2.464300181791765e-11
2.4969781954414825e-11
3.0996451783708345e-11
3.612134339679076e-11
4.5211012286196156e-11
5.3793574447960725e-11
6.762969531774021e-11
8.247623104442035e-11
8.86447388301629e-11
1.0768058158547027e-10
1.1632310950215268e-10
1.2437060923406157e-10
1.2935019869883733e-10
1.2691121013618435e-10
1.4072376769389691e-10
1.24842443687499e-10
1.0613911916158956e-10
1.0783713617591324e-10
1.0724590111114966e-10
7.954340921107602e-11
4.1080851211949175e-11
6.106780584645717e-11
6.702034961241347e-11
2.066697424776735e-11
1.0852656401986656e-12
1.2487954440171844e-11
2.1050190625032096e-11
3.8334959228750496e-11
4.8484137583440847e-11
1.6933490478028615e-11
3.383503301291538e-11
1.1091351289612957e-10
1.2936430246248474e-10
1.2362571509683432e-10
2.0067602432362374e-10
2.7673351307111183e-10
1.839610061729687e-10
5.6272817897756665e-11
9.087346797534856e-11
1.4004793992439706e-10
7.912427979120862e-11
1.1893274932667017e-11
7.088333310026622e-12
1.8597365484320672e-11
1.0552786136182976e-11
6.159719842897054e-12
1.1654874732403718e-11
3.433891513307873e-11
5.945550184672414e-11
4.5855408427913187e-11
2.1816586668883717e-11
1.7767786194743657e-11
4.044255878211578e-11
8.445495822646223e-11
1.096499326288835e-10
1.135828484311112e-10
9.573679285841915e-11
5.268471360412447e-11
2.278996839642136e-11
9.330670156334191e-12
1.1136444228868376e-11
3.3573392483712035e-11
4.0462394364212904e-11
2.8645968976378787e-11
2.031142484915009e-11
1.7325063611131486e-11
2.3345357490401717e-11
3.242305873484299e-11
3.747612056515951e-11
3.584798089033106e-11
3.062690465397906e-11
3.7065064942739096e-11
4.2924505770220763e-11
3.50904040796865e-11
3.185769500483658e-11
3.613821028607113e-11
4.562936141876252e-11
6.153232224018199e-11
7.05082691491942e-11
7.353732102757852e-11
7.249242593985758e-11
6.597678649750603e-11
7.005795555961886e-11
7.044536639814538e-11
4.742728912252046e-11
3.3230503087789497e-11
3.7389025034380036e-11
3.817070391422945e-11
4.305075038216736e-11
5.3845592916782925e-11
5.695331131168708e-11
6.52884621553562e-11
8.637713953408815e-11
9.790399966938114e-11
9.078365599135812e-11
8.498730007751497e-11
8.350236289855866e-11
7.462982741042748e-11
5.661693133565968e-11
4.1420764328019124e-11
3.461896390990392e-11
3.1648463087066944e-11
3.9472353532904617e-11
2.6027894876949196e-11
1.3632134412005784e-11
2.1483399118758667e-11
4.398750251730761e-11
4.9724439136773527e-11
3.662831033172813e-11
2.9789420797503436e-11
4.477041172534627e-11
1.0375065183126317e-10
1.365589663589661e-10
1.129843899029616e-10
1.1814385691563256e-10
1.7611662495366924e-10
2.1258373011968582e-10
2.0244122048359295e-10
1.80562229229714e-10
1.6891172321495535e-10
1.7952940704427864e-10
2.1519165556687847e-10
2.574612073756108e-10
2.1419477480040376e-10
1.2171367381612018e-10
9.222272456837187e-11
1.5367229808430813e-10
2.144302749733497e-10
1.4661894629558253e-10
7.561425828150378e-11
9.226548853365826e-11
1.4007392074261623e-10
1.7793447234480072e-10
2.587216051926355e-10
3.8884069266609736e-10
4.682950231731996e-10
4.84575313504251e-10
5.409220187134334e-10
6.868150930591411e-10
8.666966563297656e-10
1.0366392937659902e-09
1.2059058261140503e-09
1.2849141692945188e-09
1.1998842210715213e-09
1.1380226299675808e-09
1.2036652059393702e-09
1.1552818386964145e-09
8.725492558105988e-10
6.397589966049429e-10
5.669854464714397e-10
4.792196867235403e-10
3.246020427694287e-10
2.419980095638228e-10
2.383270957655892e-10
2.321163696438308e-10
2.70295070489979e-10
4.1803130527526795e-10
6.448575344015672e-10
9.227665135396076e-10
1.300411877639204e-09
1.7293842178554793e-09
2.05680395979681e-09
2.3670014063993565e-09
2.890113565586307e-09
3.4493049516795104e-09
3.6933282380402054e-09
3.729365274165308e-09
3.767167774684457e-09
3.6851578039690767e-09
3.423301665484087e-09
3.063523432215082e-09
2.6269826324221642e-09
2.2203718478569004e-09
1.886468987667857e-09
1.4327248439148329e-09
9.47890136111488e-10
7.679399157925296e-10
9.14174053450852e-10
1.1248287711442592e-09
1.2427110678959968e-09
1.373405968265806e-09
1.6548528910772605e-09
2.1352593809580216e-09
2.7130180663954568e-09
3.2156090012629765e-09
3.578119088226958e-09
3.978677033242071e-09
4.357262474439055e-09
4.21254936163157e-09
3.784212003816154e-09
4.070656044859632e-09
4.872555567296276e-09
4.751042607295972e-09
3.4817255945337866e-09
2.3402736769296033e-09
2.041080007251502e-09
2.261537492553879e-09
2.3837748912709767e-09
2.1814933401120702e-09
1.710622143619317e-09
1.1368511562637237e-09
7.177101174098098e-10
6.779805504122023e-10
1.1789798343025198e-09
1.9722213833361302e-09
2.4247763880636515e-09
2.0718156721232907e-09
1.4397856371540723e-09
1.5349378358335117e-09
2.3218623347087644e-09
3.191508402808477e-09
3.947792887532682e-09
4.428344403641923e-09
4.161281070535022e-09
2.9853328862183237e-09
1.8189919688693053e-09
1.5081741319674358e-09
1.749366534863346e-09
1.952734756913994e-09
1.7219836217586423e-09
1.0457273942501822e-09
4.1209976674631987e-10
3.698326686208234e-10
1.1085774812290231e-09
2.0078881513112533e-09
2.361440491157805e-09
2.1610547916640373e-09
1.5202794558250388e-09
5.986043850329482e-10
2.192064612444867e-11
2.482430982478304e-10
1.0199534193060113e-09
1.8139224385469299e-09
2.021108899029592e-09
1.5765383521030727e-09
1.1931025476496663e-09
1.4254611975227935e-09
2.115650527242687e-09
2.3330208159815886e-09
1.4941175079729334e-09
4.199174112491252e-10
4.156393594183646e-31
3.584606263084724e-11
1.8622791300627573e-10
6.794734248724358e-10
9.254440789276355e-10
1.3759929244690435e-09
1.5090695047815718e-09
1.170034712103115e-09
8.142794939977597e-10
6.682648364884818e-10
6.329621892790459e-10
6.306519765329422e-10
4.4293479894636884e-10
1.8298002332445218e-10
5.930616461279048e-11
6.153250679402871e-12
1.0222824159039173e-11
1.0112021679519924e-11
1.5635756326867744e-11
8.206586846388423e-11
2.3396951684821543e-10
3.457733951919104e-10
3.859373112486987e-10
2.5495437215582433e-10
1.429352160303323e-10
5.375535414102629e-11
1.6630371118605272e-11
6.43528908570784e-11
2.5426229955453405e-10
4.3540160352929663e-10
6.046201055423521e-10
6.029225053783619e-10
6.718920963319721e-10
8.079565364391644e-10
8.32980320402583e-10
8.090201988935809e-10
7.588913764834719e-10
8.39609589191011e-10
8.30237809936611e-10
5.116607003058666e-10
5.725790497691762e-10
7.211703187161569e-10
7.024900521126962e-10
6.963771184178197e-10
1.1133206230959823e-09
2.0603147523277633e-09
3.3424622045820946e-09
5.215210532799113e-09
5.074679413037055e-09
2.5280773935517866e-09
1.4443701698141995e-09
8.830335527528001e-10
5.577777107699171e-10
3.029093625082288e-10
4.908727479026207e-10
6.084994598572734e-10
7.89940540494007e-10
1.1484904456236485e-09
8.403656241289894e-10
3.4879460605927915e-10
2.69303087525884e-10
9.310284122495434e-11
8.507659247782842e-12
2.5762538792393084e-11
4.988205075963647e-10
2.7070223150443668e-09
5.67378375955962e-09
9.157871257163658e-09
1.0019445827141646e-08
7.877554148453307e-09
3.1962801290618105e-09
2.258068436654996e-10
1.0856409631325664e-09
4.422779522183284e-09
7.620284554107285e-09
7.1164462265435e-09
4.306232630268917e-09
1.9532823622575602e-09
1.6461453929434514e-09
3.6747067982017133e-09
7.70113851095754e-09
1.1694707588687244e-08
1.4888893306312267e-08
1.3075607982098895e-08
7.572909865999319e-09
4.018563083734116e-09
4.08118681406278e-09
6.6932877836145876e-09
7.223020909349379e-09
7.1376680013403105e-09
1.1351303145670052e-08
1.9377705901749782e-08
2.3046051522468192e-08
1.6948570416899522e-08
9.240971218256074e-09
1.3747958432890976e-08
3.3337741078932966e-08
4.9230429302078544e-08
4.245799298525431e-08
1.927216098368679e-08
4.6120512285285775e-09
1.3711240892517053e-08
3.407705895418458e-08
3.8727138435274016e-08
2.506364158900006e-08
1.1847606528125332e-08
2.3987885875737444e-08
5.10700514525276e-08
5.976453800493938e-08
3.7148500986358263e-08
1.1907389561036427e-08
1.9948393054217967e-08
5.784386280407801e-08
8.647214340270433e-08
6.581335987229254e-08
2.1002777402547304e-08
1.887288633851653e-09
2.872393360557201e-08
6.83161818864857e-08
6.761644002721465e-08
3.005719207452486e-08
1.1025469821538585e-26
1.0078494948678809e-27
8.681940189163544e-29
7.295766801306376e-30
4.813428714297324e-12
8.492342337791717e-12
1.0643530758246277e-11
1.106249142838011e-11
9.976741013414648e-12
1.0704647021333188e-11
1.3606380328279977e-11
2.2957950401303e-11
3.5581710793740977e-11
5.680668587982105e-11
7.325091860452602e-11
9.911922925618174e-11
1.1016196518270984e-10
1.294469778856119e-10
1.3433299705263012e-10
1.4282120107054868e-10
1.5097447725021972e-10
1.5765368541287673e-10
1.7404434781499894e-10
1.9081132340623725e-10
2.1008826376141599e-10
2.3372052923106405e-10
2.5645160315522924e-10
2.607802953260612e-10
2.876254144378411e-10
2.674737346294406e-10
2.711503195184219e-10
2.5521440737443355e-10
2.2876971692948245e-10
2.1433930479049703e-10
1.8791185935827417e-10
1.7699924533455202e-10
1.505093587063696e-10
1.550341940668291e-10
1.5556862349047116e-10
1.576315513916464e-10
1.9567727067950747e-10
2.2803016095139812e-10
2.854122642989216e-10
3.395930573448533e-10
4.2693900221242785e-10
5.206635875396263e-10
5.596047146112679e-10
6.797759452229152e-10
7.343352956385237e-10
7.851382970375959e-10
8.165739104546094e-10
8.011768376383807e-10
8.883740298478896e-10
7.881169372608527e-10
6.700448585145156e-10
6.807642575363372e-10
6.770318540789916e-10
5.021489983297827e-10
2.5933900107141334e-10
3.8551449881439255e-10
4.230922682265308e-10
1.3046838851833773e-10
6.851165414614977e-12
7.883511500846101e-11
1.3288759234547604e-10
2.4200447992678784e-10
3.060751527232516e-10
1.0689930650577349e-10
2.135969290781264e-10
7.001850933273005e-10
8.166629459995836e-10
7.804358603608145e-10
1.266846186281882e-09
1.74698894315924e-09
1.1613260721119853e-09
3.552442549397051e-10
5.736744423096822e-10
8.841076017319251e-10
4.995030793222324e-10
7.508096715406886e-11
4.4747886804955706e-11
1.17403170698197e-10
6.661860536818468e-11
3.888564973239976e-11
7.357597229715784e-11
2.1677788277907838e-10
3.753361968469643e-10
2.8948026792486785e-10
1.3772576824918636e-10
1.1216612575094301e-10
2.5530952952296866e-10
5.331550796982489e-10
6.922082468254967e-10
7.17036321837512e-10
6.043760899107527e-10
3.3259293794411285e-10
1.4387062254099207e-10
5.890351845890451e-11
7.030317621466826e-11
2.119452205209372e-10
2.5543474942214267e-10
1.8083892518994092e-10
1.2822384335559972e-10
1.0937126563489119e-10
1.4737673423511707e-10
2.046832871254661e-10
2.3658272369422935e-10
2.2630445281088577e-10
1.933443593438016e-10
2.339877737027284e-10
2.7097779426476943e-10
2.2152195177910878e-10
2.0111420662551716e-10
2.281366398116969e-10
2.880532574365539e-10
3.8844694091274046e-10
4.4511112961329445e-10
4.642332087610894e-10
4.5763689830793224e-10
4.165043663746734e-10
4.422683482919723e-10
4.4471403130251527e-10
2.9940338190903755e-10
2.0978059659535826e-10
2.3603289896363663e-10
2.4096755376942115e-10
2.717747629396387e-10
3.3992144435105274e-10
3.595401367678075e-10
4.1215904873786777e-10
5.452896038254621e-10
6.180574337215295e-10
5.731074689017517e-10
5.365156966233519e-10
5.271414477145974e-10
4.711300842063038e-10
3.574166061108283e-10
2.6148483606197494e-10
2.185458006262138e-10
1.997933480029274e-10
2.491847279976421e-10
1.6431130461620957e-10
8.605820027050694e-11
1.356223910340198e-10
2.7768837854914477e-10
3.139050432045633e-10
2.312305887566684e-10
1.8805741371477227e-10
2.8263080028463443e-10
6.549667208113126e-10
8.620820863755093e-10
7.132583174317064e-10
7.45829478487342e-10
1.1118053360653872e-09
1.3420182539264973e-09
1.2779896800342305e-09
1.1398699583430515e-09
1.0663215652911282e-09
1.1333498628252323e-09
1.3584818071487569e-09
1.6253249474054136e-09
1.3521886059482515e-09
7.683653491343216e-10
5.821921542533407e-10
9.701167113582314e-10
1.3536752932442087e-09
9.255896591397684e-10
4.77344690554444e-10
5.824621185727753e-10
8.842716158466577e-10
1.1232812113846214e-09
1.6332817034408061e-09
2.4547095261407436e-09
2.9562961801805766e-09
3.0590719043208636e-09
3.4147826019211204e-09
4.335789909409628e-09
5.47136289666552e-09
6.544192512701628e-09
7.612753949938827e-09
8.111525133890592e-09
7.574740204105784e-09
7.184214624223994e-09
7.598609155448468e-09
7.2931701550606265e-09
5.508309728541021e-09
4.038729826944682e-09
3.5793182217987397e-09
3.0252624077197622e-09
2.049177829428175e-09
1.527707440572636e-09
1.5045333560693372e-09
1.4653257091772387e-09
1.7063437467188858e-09
2.638986728082531e-09
4.0709163484040215e-09
5.8253258825830965e-09
8.209360502010656e-09
1.091741680846315e-08
1.2984382470105188e-08
1.4942625631176987e-08
1.8244976502923134e-08
2.1775091658739774e-08
2.3315584454189404e-08
2.354308239239035e-08
2.3781725517676586e-08
2.3264005381511627e-08
2.1610935706086738e-08
1.9339694364425286e-08
1.658385918561864e-08
1.4016968978062595e-08
1.1909076087295845e-08
9.044638045936926e-09
5.983928613268275e-09
4.847922201440929e-09
5.771082604987239e-09
7.100923210668224e-09
7.845101487935936e-09
8.670164355600548e-09
1.04469085481677e-08
1.3479663116740558e-08
1.712699163894252e-08
2.0299794225812436e-08
2.258828146641286e-08
2.5116960748044246e-08
2.7506929973210836e-08
2.659337163616956e-08
2.388932390540815e-08
2.5697614368617127e-08
3.075991991908908e-08
2.999282165471468e-08
2.197975969467072e-08
1.477389634594794e-08
1.2885118846648221e-08
1.4276843271297052e-08
1.504851483947623e-08
1.3771533134738134e-08
1.0798973849106482e-08
7.1768192365633904e-09
4.530826879599009e-09
4.280018390626845e-09
7.442773055842155e-09
1.2450421750202213e-08
1.5307352884622482e-08
1.3079149797564761e-08
9.08921207523317e-09
9.68989768488521e-09
1.4657667520130735e-08
2.014764973649389e-08
2.4921992453548762e-08
2.7955662557124265e-08
2.6269720421373176e-08
1.8846085846251996e-08
1.1483100915549566e-08
9.520941297156311e-09
1.1043563029367278e-08
1.2327404770722038e-08
1.0870697640226235e-08
6.6015647148755045e-09
2.6015415624753843e-09
2.334713912057438e-09
6.9983305630379475e-09
1.267558222534407e-08
1.4907520170573297e-08
1.364250677375755e-08
9.597360906396625e-09
3.7789251846431426e-09
1.3838268441479878e-10
1.5671320146292179e-09
6.438856379520547e-09
1.1451097515159374e-08
1.2759043385605856e-08
9.95251727564639e-09
7.531928228235507e-09
8.998783426476176e-09
1.3355874529487254e-08
1.4728109813836826e-08
9.432203339747325e-09
2.6508935125026327e-09
3.935952999632886e-10
7.670325412800336e-11
3.882118787243743e-10
1.6449351657313248e-09
2.5844810980926593e-09
3.1972293622339284e-09
4.068072621929836e-09
3.573433498090703e-09
2.7397061232928856e-09
2.5624986774962547e-09
2.3885018681803983e-09
1.8845168263228114e-09
1.2834423154964241e-09
3.8400829647892904e-10
3.894792909157701e-11
2.587586689467038e-11
7.75165206901716e-11
1.2131207395673531e-10
4.537297830849684e-10
9.225257997914771e-10
1.1428228750964888e-09
1.6601991947184465e-09
1.2336518242692132e-09
5.383136872962026e-10
3.465739051033102e-10
2.4644610946705313e-11
8.749338084160506e-11
2.2231855892900106e-10
6.078163067394675e-10
1.5058839184049065e-09
2.4047846791899724e-09
2.373765694376603e-09
2.9049493536437655e-09
2.8664503053534863e-09
2.6637941472967854e-09
3.0493587308306294e-09
2.8826179282615213e-09
2.906733009091988e-09
2.5728566047743313e-09
1.2695218572120123e-09
1.436771631412462e-09
2.197989486315034e-09
2.5908848695084335e-09
2.199328139327464e-09
2.867800492570607e-09
5.440080301778284e-09
1.0349941583286382e-08
1.6302321923460795e-08
1.5533028690672544e-08
7.607415008099883e-09
3.6177865952328902e-09
2.046923238826239e-09
9.85588576151799e-10
6.619464291647992e-10
1.1521811866622625e-09
2.6041444072999796e-09
3.2073296937124714e-09
4.253776008889058e-09
3.260651373327004e-09
1.4472323107313603e-09
7.832934288748678e-10
3.3540488754725983e-10
1.4021668660464529e-11
1.1406968666831399e-11
1.6788015435497123e-09
8.93866398453026e-09
2.1384390014666104e-08
3.330776439817139e-08
3.57036143842528e-08
2.5913311716743072e-08
8.941057435473587e-09
1.7296827749469638e-10
4.7451373121812515e-09
1.7295879218427453e-08
2.409725228286445e-08
1.9890912262409875e-08
1.1401043680658611e-08
8.418923713004005e-09
9.977008583737626e-09
1.415587421881093e-08
2.42064408946199e-08
3.801286596423432e-08
5.446610364202445e-08
4.7152817827401175e-08
2.7491964458578503e-08
1.1512970567100533e-08
1.3780028703010824e-08
2.88161309516789e-08
3.549391100170546e-08
3.337048846831895e-08
3.919582090618461e-08
6.331133068694438e-08
7.82425740435176e-08
6.511390465179522e-08
4.0271813350094144e-08
4.8622511722304663e-08
1.0566209154640083e-07
1.6317225451861598e-07
1.4665674043325415e-07
6.986919720260434e-08
1.7346318929024705e-08
4.807600099257484e-08
1.233328879569044e-07
1.5384589035798538e-07
1.0411464252050255e-07
4.9968933469612825e-08
8.332315389088306e-08
1.8078574246705133e-07
2.2383694630430231e-07
1.4866454527064778e-07
5.177350487691567e-08
6.22400946847399e-08
1.8842710794284475e-07
2.83750062397351e-07
2.2185931315548875e-07
6.945631321508847e-08
9.490175604128464e-09
1.1489783377717669e-07
2.525710880592703e-07
2.509193172755345e-07
1.1235461961533537e-07
2.396406386365841e-26
2.1891700127190334e-27
1.885009458962144e-28
1.6992479694061848e-29
1.59015435346645e-11
2.3598479122878878e-11
2.6426377146745888e-11
2.3180166973594505e-11
1.8902286452325428e-11
1.830058498884921e-11
3.0308197027828136e-11
5.456344553095236e-11
9.673059643147526e-11
1.4661354303291575e-10
2.0035493013475026e-10
2.5150333174052336e-10
2.8816005886818136e-10
3.212013705345161e-10
3.3559230466589855e-10
3.572249163170862e-10
3.750772028145698e-10
4.1801246455299776e-10
4.564043075707619e-10
5.441237923022329e-10
5.885460324108895e-10
7.05435358944256e-10
7.423491891930078e-10
8.197605621452119e-10
8.559102661316297e-10
8.461663231899604e-10
8.563662228666346e-10
7.950101774593218e-10
7.817223648543657e-10
6.86417558999195e-10
6.7760173102507e-10
5.912658316821406e-10
5.476000487553224e-10
5.502006946836078e-10
4.803303955222523e-10
5.223748112893375e-10
5.378022085583227e-10
6.101634602798197e-10
7.121196757706866e-10
8.192474319349254e-10
1.0922240050345012e-09
1.184591775771821e-09
1.4346418120508472e-09
1.741921377454734e-09
1.8201488798406734e-09
2.157479663468048e-09
2.190248041778009e-09
2.3036772802893543e-09
2.5242932545446188e-09
2.3625339181362374e-09
2.1418998518333823e-09
1.994895371843935e-09
2.245003624823658e-09
1.7122971229269246e-09
8.420226519469642e-10
1.1909577557620524e-09
1.3750816624451954e-09
6.246940447214074e-10
4.1456731266273754e-11
2.061154321776613e-10
5.831333007301541e-10
8.451141387673649e-10
6.854904995726226e-10
1.580332032034369e-10
5.81734894461147e-10
1.7424762127655748e-09
1.7556572880256901e-09
1.1607402922010245e-09
2.4455152696022935e-09
3.94599950156389e-09
2.5413505669854345e-09
7.867274075941643e-10
1.2972002249883358e-09
1.9936735443493552e-09
1.188153581624817e-09
1.657408528605368e-10
7.860063606106031e-11
1.464685093597973e-10
1.7212959566484687e-11
2.4341780531360993e-11
2.2591056267114615e-10
6.902441432998375e-10
9.214495931649921e-10
7.564334732806148e-10
5.500894384900958e-10
4.69782869236991e-10
6.800331023714802e-10
8.623872367541373e-10
9.624574188435884e-10
1.0668477081109426e-09
7.85826473141232e-10
4.268860263165009e-10
2.53866359576671e-10
9.340847199044574e-11
1.6188098523576915e-10
3.906961673269307e-10
5.085396255280134e-10
4.769051001045329e-10
4.779994434618026e-10
6.809361305300634e-10
8.421392759224411e-10
9.857707715796305e-10
1.0667833264716841e-09
7.302288769908878e-10
5.070520800017029e-10
7.013373376948594e-10
7.79744251185232e-10
7.364626393125528e-10
6.87671687074836e-10
7.567106185779027e-10
1.1289786724967876e-09
1.3965836766796246e-09
1.5201569455329068e-09
1.6447953520282282e-09
1.3963087524633467e-09
1.1866744858699606e-09
1.4098442627097588e-09
1.3562251526644773e-09
8.958968454818552e-10
6.172665848216705e-10
5.703154824243906e-10
6.519884531739589e-10
8.07630730064007e-10
9.601675005598348e-10
1.0440058545873961e-09
1.0923898205187823e-09
1.4912020111564715e-09
2.106784673230242e-09
1.9532222098599283e-09
1.4550976335930026e-09
1.4146327789465138e-09
1.4333506266947924e-09
1.237372374045978e-09
8.735451102019025e-10
4.515059907865484e-10
3.5468201414608423e-10
8.587018877098017e-10
7.627693762018961e-10
2.471897812926813e-10
2.1152544402487505e-10
4.671900412113275e-10
8.27932233335582e-10
1.0303968655699044e-09
4.648574739372161e-10
3.802266313879615e-10
1.4043150528012106e-09
2.546779882792344e-09
2.2163696693125867e-09
2.0614710571357677e-09
2.8127540784344257e-09
3.822010102194332e-09
4.00796623157945e-09
3.36201074789415e-09
3.21377828436784e-09
3.7147013555540683e-09
3.776237617298928e-09
4.192304008397285e-09
4.617916750679363e-09
3.447241699300315e-09
2.1383502123321064e-09
2.5103115118195145e-09
3.5594963682476345e-09
2.6427134736884362e-09
1.5290534286801396e-09
1.8181146869231442e-09
2.2663862529504595e-09
2.9417584988773384e-09
4.2863736822813226e-09
6.1882818306850335e-09
8.44341162595687e-09
1.0087512829040125e-08
1.0763121372594639e-08
1.2465519524888092e-08
1.6229136030813715e-08
2.0043515905901993e-08
2.2751607566119428e-08
2.3845625830963277e-08
2.1972311293945704e-08
1.9988833150369333e-08
2.1472397482752362e-08
2.2277328984842905e-08
1.7290360299281447e-08
1.2167972213829849e-08
1.0720280119251721e-08
9.378797225440905e-09
6.505565346124905e-09
5.231710963896388e-09
5.535000517532728e-09
5.623364697671347e-09
6.3796623502051025e-09
8.232340898447028e-09
1.1612874387224846e-08
1.7523980693591263e-08
2.5056526563268875e-08
3.236371914944166e-08
3.912266662093359e-08
4.5476524725957334e-08
5.306045752647402e-08
6.303425466065063e-08
7.108702923826962e-08
7.341243785824134e-08
7.316011513640524e-08
7.16051395827408e-08
6.586304775030873e-08
5.7818176877828754e-08
5.127404959343842e-08
4.5524910608632695e-08
3.7838705957249246e-08
2.7595401711590627e-08
1.880797829782303e-08
1.52997271463573e-08
1.6949044373860447e-08
2.1144378756333905e-08
2.518942412854166e-08
2.7568503252438934e-08
3.1462762650334386e-08
4.100863722604564e-08
5.260642870268191e-08
6.194541701981011e-08
7.256194252106658e-08
8.536590090543854e-08
9.150138072322157e-08
8.475660123526006e-08
7.611381777532494e-08
8.283925071721885e-08
9.968491908672116e-08
9.704757511511148e-08
7.004646828054996e-08
4.371086241102551e-08
3.5175133526091636e-08
3.848059944397877e-08
4.130726152168256e-08
3.896435469667651e-08
2.9730308753056942e-08
1.9138301572181005e-08
1.2975941474212485e-08
1.2661807431090861e-08
2.1483032125200084e-08
3.8783907381657646e-08
5.328436883630256e-08
4.881720815667364e-08
3.441965911572647e-08
3.27976649697876e-08
4.4507091435704135e-08
6.032404464404491e-08
7.995233987912164e-08
9.420305643802505e-08
8.542616354419395e-08
5.5548091824274987e-08
3.1568150543154726e-08
2.7339262106354004e-08
3.537110059708811e-08
4.204986411254649e-08
3.7422919383508435e-08
2.2835297666382797e-08
7.918151292542454e-09
6.030376293909897e-09
2.1496546226553856e-08
4.0096041164098916e-08
4.698757113443563e-08
4.233409769411211e-08
3.206112968121117e-08
1.5128114532491122e-08
1.4637752966833385e-09
4.775015409543242e-09
2.067070938056699e-08
3.972158123298589e-08
4.63194243469467e-08
3.513852931998031e-08
2.2960265147713543e-08
2.7556703438228335e-08
4.681108997526263e-08
5.458697105520496e-08
3.6449412035842315e-08
1.092568917107534e-08
1.746905542565475e-09
8.826218255692024e-11
3.4257267383582514e-10
1.6804418447057449e-09
2.2952396715266454e-09
2.716399465308203e-09
3.591760044463356e-09
3.404667674707267e-09
3.308762502758562e-09
3.662648435375275e-09
4.132826050280649e-09
3.532333706937162e-09
1.6507566906313497e-09
2.970694373572977e-10
2.992340642250163e-11
3.187873216486781e-10
6.007616909781771e-10
7.22978862013066e-10
7.950281765338916e-10
1.1156122647609069e-09
1.0172819959955325e-09
1.4192151388697525e-09
8.987966262199446e-10
3.2447844552587527e-10
1.738416163950557e-10
1.2649149149771688e-11
3.803896613165133e-10
9.379890232191466e-10
2.0160714064778004e-09
3.049488864259289e-09
3.967930799481045e-09
3.874450653457985e-09
3.573106313789686e-09
3.405638432668106e-09
3.3761858083187726e-09
4.27978576944233e-09
3.845525365770526e-09
3.679221795631604e-09
2.5732104571894976e-09
9.344686036951518e-10
1.5232205316770828e-09
3.3920049771082867e-09
4.1456892772832445e-09
3.332660675290855e-09
3.5479331335920767e-09
7.686112951577437e-09
1.671353471391373e-08
2.402329692167584e-08
2.140442376484518e-08
9.621501783426793e-09
3.1752217569637745e-09
8.959656149557317e-10
7.191174372300368e-10
6.518304937170454e-10
4.862203417039185e-10
2.2769676183469097e-09
4.206536331582327e-09
7.019605440421231e-09
5.788571532078759e-09
2.796155105812422e-09
7.818480848373249e-10
1.8603108834960942e-10
3.97310508382673e-10
3.779723243867512e-10
5.132900793368539e-10
8.134556162351181e-09
2.4887520315288268e-08
4.609222531434252e-08
5.454358089160611e-08
4.0848669379882333e-08
1.4839457174106183e-08
6.558482656867847e-10
9.77310274936399e-09
3.2038312831327725e-08
4.124915961689024e-08
3.11633151298244e-08
1.5492142673898503e-08
1.2731587685264554e-08
2.045944140522567e-08
2.9102680131512638e-08
3.774494973476978e-08
5.0559787564908215e-08
7.042563804615126e-08
6.746383999209073e-08
4.484648741222998e-08
2.4132585441533214e-08
2.8154901458030837e-08
5.397862854604737e-08
6.720348447996872e-08
6.20476787923162e-08
7.042358260739646e-08
1.0947661386876381e-07
1.366678479902247e-07
1.177609686193795e-07
7.692065341398894e-08
9.116754377370109e-08
1.8355721740070193e-07
2.7232552146242494e-07
2.3680117422804652e-07
1.0999500632119339e-07
3.3789051286786654e-08
1.0784467756284802e-07
2.5476319491362475e-07
3.020261297387152e-07
2.0451178898344416e-07
9.150126335375305e-08
1.4748554451382243e-07
3.2340904766363707e-07
3.996729938208401e-07
2.6886930134928526e-07
9.426787113661599e-08
1.0905230355913316e-07
3.3184343405792546e-07
4.990183249395572e-07
3.947744359491609e-07
1.2299261117127304e-07
2.2562826200250397e-08
2.2058814344999e-07
4.750264515943845e-07
4.7486486384106027e-07
2.080539727001996e-07
4.733132502683252e-26
4.3203401904274115e-27
3.7283050181149895e-28
3.5608240952828375e-29
2.4006278296667377e-11
3.0271210303364034e-11
2.7329990628174362e-11
1.848124713651106e-11
9.155165302245777e-12
9.1127930937518e-12