# vtk DataFile Version 4.1 
COMMENT
ASCII
DATASET STRUCTURED_POINTS 
DIMENSIONS 400 400 1 
ORIGIN 0 0 0
SPACING 0.002506265664160401 0.002506265664160401 0 
POINT_DATA 160000
SCALARS U double 1
LOOKUP_TABLE default
4.0382261377037644e-07
1.951927144703377e-12
2.452299279566562e-12
1.77116530136683e-11
1.0267816151812306e-11
5.186729743625585e-11
2.0803394174372196e-11
1.0467712077232437e-10
3.825310801139851e-11
1.6410106302444764e-10
8.808011338498242e-11
1.9752599446434907e-10
2.0573046958722172e-10
1.6721736372446825e-10
3.927815646296654e-10
1.513462377705478e-10
5.521994746730466e-10
3.0434475807974386e-10
4.143385241516224e-10
6.566242351336112e-10
3.145860641845347e-10
1.0859427687109629e-09
6.688442000376762e-10
5.021356431917653e-10
9.727010142902507e-10
8.128265265518347e-10
1.8521185129207867e-09
1.9548742382025346e-09
3.05595406559428e-10
6.715222988239003e-10
3.1384474432896256e-09
2.9678511077093533e-09
3.929213027958234e-09
7.807327822158198e-10
5.524465051375658e-10
3.8477457619089896e-09
7.072343371996162e-09
3.412910818983929e-09
2.8483362690636872e-09
1.9666635687743043e-09
2.5300052121253856e-09
5.388427977714686e-09
1.3081766046553539e-08
8.776766336967067e-09
1.8949481258863403e-09
1.4117039758026436e-09
8.770511955710572e-09
1.556007610211528e-08
1.7306613189092492e-08
1.7981770366299972e-08
4.982358925009549e-09
3.6247669934750806e-09
1.4454527580271227e-08
3.786594110486584e-08
5.05346092037701e-08
2.470599418869712e-08
2.7141714340067867e-09
8.299758813802214e-09
6.032247119009161e-08
1.0816456464598542e-07
9.338092613627172e-08
4.470280901206006e-08
2.0222153639558276e-09
6.225919852845224e-08
1.992294965198328e-07
2.63892644839224e-07
2.0527980691173992e-07
5.196634435365795e-08
3.1187739901335436e-08
3.0328600141709476e-07
6.061264262763449e-07
6.229253709128243e-07
3.0446314499955196e-07
1.7390029105816803e-08
3.628298055551305e-07
1.1878350068434024e-06
1.5311138661176187e-06
9.912398177387574e-07
1.8257158532542112e-07
3.591114308067436e-07
1.9723044018770657e-06
3.2617269770451663e-06
2.522372478141478e-06
6.978174000762274e-07
4.372606446146499e-07
2.8199906305195444e-06
5.566628596677588e-06
5.121318062470262e-06
1.8450483098359626e-06
7.01384812040931e-07
4.063206003249238e-06
7.91135941256596e-06
7.2296301793094335e-06
2.8727399299505797e-06
3.9214195595915657e-07
3.625873044428473e-06
9.506860177212158e-06
1.1009055088553532e-05
5.867845564719677e-06
8.010852405771118e-07
3.3099135906970203e-06
1.1370705480127026e-05
1.505364868664622e-05
9.48871291494864e-06
1.764907863238458e-06
2.529104700083057e-06
1.1859620015608914e-05
1.8410133720363624e-05
1.3658164680668603e-05
3.577353591730703e-06
1.5473865039657927e-06
1.1061379848020183e-05
2.0517519779565296e-05
1.7774976371170328e-05
6.229080022654412e-06
8.723855318577793e-07
9.059106512675976e-06
2.0621393166652604e-05
2.075027256027681e-05
9.21202326240366e-06
2.7759922198777944e-24
2.5307636159017093e-25
2.2199144453804138e-26
2.04000954947154e-27
6.257487138649501e-10
6.398247326556497e-10
6.126636801766095e-10
6.152164827520852e-10
5.552749382348045e-10
5.144508799726505e-10
5.255328484854955e-10
4.697405023551246e-10
5.231352164852066e-10
5.801182913137069e-10
5.490676813095981e-10
6.529761030672355e-10
6.39318380005297e-10
5.490294782429395e-10
5.901480753303089e-10
4.618775090734175e-10
3.3571725260734935e-10
3.3776840839973144e-10
2.4268935100102876e-10
1.6529609516312094e-10
2.2444358443700813e-10
2.6790055665991654e-10
2.3799691620265735e-10
3.3554633585737504e-10
4.658109099186357e-10
4.0820732922938296e-10
4.33482012981063e-10
5.502511835079321e-10
4.422406122122093e-10
3.4158039895044087e-10
3.943592631326262e-10
3.0128174485434966e-10
1.4566513910022393e-10
1.3633162134773056e-10
1.076308501048795e-10
2.0691700302960228e-11
4.929778408183774e-12
5.657373840309965e-12
6.855046954653027e-12
6.829385575583193e-11
9.51966878914637e-11
7.717483555209282e-11
1.6902382431156038e-10
2.9802182128923715e-10
2.7476343611054114e-10
2.3543838473761894e-10
3.7171992239223145e-10
4.952737547012756e-10
4.114709880557129e-10
3.3712615117982184e-10
4.772580642360714e-10
6.075522344807721e-10
4.996175202308447e-10
3.6723958112262865e-10
4.848705780314419e-10
6.85149826078387e-10
6.416902651327753e-10
4.356808320714382e-10
4.3828226294977466e-10
7.12394974232819e-10
9.003893796561415e-10
7.612205257960769e-10
5.339700032411435e-10
6.071326167767433e-10
9.837164051689208e-10
1.2726980116167373e-09
1.1882765820214098e-09
8.991043803991389e-10
8.174073048785005e-10
1.1192013082166613e-09
1.5574006843721404e-09
1.7410769705803546e-09
1.5420490748536051e-09
1.2083852695333854e-09
1.110706756718922e-09
1.4010418481912657e-09
1.8963391874983196e-09
2.2522817478410315e-09
2.243107238309444e-09
1.915722805798801e-09
1.5277584652371326e-09
1.3528921701959457e-09
1.5081092743677131e-09
1.9061718263244986e-09
2.3330834870532675e-09
2.5768967539210308e-09
2.5262122085114937e-09
2.1971522149869476e-09
1.6969232433847878e-09
1.160284936766312e-09
6.953170630345572e-10
3.5752135703415553e-10
1.5189477993262102e-10
5.1196353836095516e-11
1.707176675022323e-11
1.5384504260944537e-11
2.3175196690447053e-11
2.891911568058155e-11
2.930696484932676e-11
2.5350422432052318e-11
1.938844680840096e-11
1.3431130271221062e-11
8.602083707681945e-12
5.218672169791285e-12
3.1066875613510835e-12
1.90440631789815e-12
1.2587578318537487e-12
9.100889446680839e-13
7.018449930953072e-13
5.555259389231716e-13
4.3912686356630793e-13
3.4263996551981515e-13
2.636540006130661e-13
2.0091010666156187e-13
1.5244704625150694e-13
1.1568594170268592e-13
8.79710602457008e-14
6.698000380533093e-14
5.0895237534208516e-14
3.8402086570545955e-14
2.8600354115525775e-14
2.0890995124651402e-14
1.4871330696933216e-14
1.025333768397505e-14
6.808384870268107e-15
4.335591099064859e-15
2.6480413960128533e-15
1.5704377256363924e-15
9.425561082501243e-16
6.243579836638586e-16
5.001704208135331e-16
4.806754542367592e-16
5.024186845542511e-16
5.251699037145855e-16
5.277995600970046e-16
5.034394317305548e-16
4.546377339391086e-16
3.8905902994083453e-16
3.160735745638026e-16
2.44375453841743e-16
1.8059699444465113e-16
1.2876635145428991e-16
9.039024990034192e-17
6.492856257906163e-17
5.044958615627827e-17
4.430008047298144e-17
4.367867997458627e-17
4.6054214063697623e-17
4.9414452596451155e-17
5.236214855487573e-17
5.4093399060728433e-17
5.429991387098923e-17
5.3034643312997144e-17
5.0572648127173724e-17
4.7289118401421427e-17
4.35664522961054e-17
3.973386701567494e-17
3.603692856173216e-17
3.263080149061468e-17
2.9589634430487344e-17
2.69247642779167e-17
2.46057214876965e-17
2.2579782779570084e-17
2.0787603883909482e-17
1.9173984711470413e-17
1.769392941008453e-17
1.6314838002451507e-17
1.501595779292734e-17
1.3786226623900753e-17
1.2621462884226404e-17
1.1521595321788328e-17
1.0488353187233979e-17
9.523601689289599e-18
8.628332968070161e-18
7.80221426289116e-18
7.043545156565109e-18
6.3494692981183774e-18
5.716305882527572e-18
5.139899572629704e-18
4.6159258201914825e-18
4.140123042259595e-18
3.708446119382145e-18
3.3171474556590874e-18
2.9628001129107165e-18
2.6422847808206645e-18
2.352761280597428e-18
2.0916345377126644e-18
1.8565176029592114e-18
1.6451979148927276e-18
1.4556150282248677e-18
1.2858488492716482e-18
1.134110281725141e-18
9.987322773397642e-19
8.781651715874295e-19
7.709748901522169e-19
6.758391029380891e-19
5.915422425716604e-19
5.169719800586494e-19
4.51114431419612e-19
3.9304664226885505e-19
3.419300868302215e-19
2.9700583716793857e-19
2.57588376439646e-19
2.230590902172623e-19
1.9286149219033002e-19
1.664961079020387e-19
1.4351457426059129e-19
1.2351534572521808e-19
1.061400710742235e-19
9.106914821566266e-20
7.801813801208984e-20
6.673492614703895e-20
5.699612106098836e-20
4.8603954001968965e-20
4.1384060177131664e-20
3.5182794351576824e-20
2.98649004745361e-20
2.5311912143135666e-20
2.1420133559299284e-20
1.8098852617759444e-20
1.5269102959466416e-20
1.286209704605929e-20
1.081794672893799e-20
9.084789756492034e-21
7.617655030877656e-21
6.3776403228292e-21
5.331284851163564e-21
4.449733727343542e-21
3.708213405645938e-21
3.085526309444797e-21
2.5634630104293065e-21
2.126488541406808e-21
1.7613389825066554e-21
1.4566751758995373e-21
1.2028892101853318e-21
9.917993863507798e-22
8.164822106632319e-22
6.711068961467283e-22
5.507367015536376e-22
4.512424073316677e-22
3.6914533717640143e-22
3.0152443413728846e-22
2.4593725383540904e-22
2.0031796667001186e-22
1.6294392215137372e-22
1.3236181957803488e-22
1.0736014616140373e-22
8.693548550047544e-23
7.025724250542645e-23
5.665522788889389e-23
4.558104491143941e-23
3.6596113291643833e-23
2.933894708560001e-23
2.3509532499791903e-23
1.8850800579112638e-23
1.5137123535924018e-23
1.2172332394273778e-23
9.786552489254884e-24
7.843299243635572e-24
6.238415268551136e-24
4.9035122359764595e-24
3.798285300865347e-24
2.904053625366268e-24
2.210052078787839e-24
1.703647178489375e-24
1.360937512758299e-24
1.1451749840620886e-24
1.0094384150888354e-24
9.056388078505959e-25
7.94200590471939e-25
6.533028785917296e-25
4.826227701535783e-25
3.0168091423080996e-25
1.4187090073867628e-25
3.5478314687150587e-26
2.2828351120969815e-31
1.924368537639088e-12
1.2322306401584695e-11
1.548110194235587e-11
1.1181176300826423e-10
6.481962046641786e-11
3.274326774777229e-10
1.3132959286168022e-10
6.6081541972115e-10
2.414877619835539e-10
1.0359523842373185e-09
5.560402948241237e-10
1.2469603861353699e-09
1.2987543563163516e-09
1.0556252558244206e-09
2.4795878275447027e-09
9.554325424472664e-10
3.4859759700454466e-09
1.921295767083907e-09
2.615674597502748e-09
4.145198266225308e-09
1.98594803247101e-09
6.855440054180506e-09
4.222341592077968e-09
3.169928379425254e-09
6.140557022192607e-09
5.1312865537456245e-09
1.1692225229915297e-08
1.234091108628786e-08
1.929190976599878e-09
4.239248142051981e-09
1.981268159850392e-08
1.8735725256300313e-08
2.4804699795779215e-08
4.928682193047218e-09
3.4875354468335985e-09
2.4290405695877887e-08
4.464694404370135e-08
2.1545339408246304e-08
1.7981240917412932e-08
1.2415335863856585e-08
1.597165114794941e-08
3.401656703450471e-08
8.258378389628693e-08
5.540678314387464e-08
1.1962603976096952e-08
8.911935563465398e-09
5.536729990680608e-08
9.822908907359719e-08
1.0925479010237964e-07
1.135169848412329e-07
3.1453096721992436e-08
2.2882764681639012e-08
9.124988000580603e-08
2.3904361888948655e-07
3.190195598144755e-07
1.5596628756098388e-07
1.713427272478584e-08
5.2395485887085105e-08
3.8080928118760876e-07
6.828312782977316e-07
5.895037563452449e-07
2.8220403161708895e-07
1.2766028379836135e-08
3.9303563284441314e-07
1.2577144116328686e-06
1.6659259212913092e-06
1.2959093712531984e-06
3.280579500283264e-07
1.9688485201920022e-07
1.9146119499971457e-06
3.826411023045464e-06
3.932460956105552e-06
1.9220431309923257e-06
1.0978138582468166e-07
2.29050558972432e-06
7.498674808929481e-06
9.66575737481397e-06
6.257590497049054e-06
1.1525548075436898e-06
2.2670318893406407e-06
1.245094583733385e-05
2.059093205324163e-05
1.592346651816611e-05
4.405246291814435e-06
2.760379481845335e-06
1.7802297945982217e-05
3.5141528400901716e-05
3.233033083072298e-05
1.1647591797274617e-05
4.427766980360132e-06
2.565058305616423e-05
4.994356218634039e-05
4.563987876357569e-05
1.8135298607314245e-05
2.475550046710257e-06
2.2889747062503202e-05
6.0015787135556287e-05
6.949898225514805e-05
3.7043078765444136e-05
5.0571650765574235e-06
2.08951289693428e-05
7.178204233109106e-05
9.503206719677875e-05
5.990122541814394e-05
1.1141673766054061e-05
1.5965966312153152e-05
7.486850727766661e-05
0.00011622119668351705
8.622252656057835e-05
2.25834489692565e-05
9.768484789651824e-06
6.982930284128617e-05
0.0001295248985139751
0.00011221151656240396
3.932351309700245e-05
5.507276156813001e-06
5.718916634603616e-05
0.00013018064004927444
0.00013099424181786364
5.8154513361774964e-05
1.7524540705615143e-23
1.5976438869526693e-24
1.4014081445359644e-25
1.2878361161664716e-26
3.95028441689775e-09
4.039144811571865e-09
3.8676800047298485e-09
3.883795573183891e-09
3.5053910411651465e-09
3.2476731464028128e-09
3.3176324232736416e-09
2.9654213349923864e-09
3.3024964299933724e-09
3.6622244606458264e-09
3.4662052949382415e-09
4.122168000348167e-09
4.035948261679195e-09
3.465964123081944e-09
3.725541409810477e-09
2.915783102994993e-09
2.1193469552136466e-09
2.132295681409551e-09
1.5320718048064552e-09
1.0434964937664226e-09
1.4168882403257132e-09
1.691227438112324e-09
1.5024489679542226e-09
2.1182679761297903e-09
2.9406142400313072e-09
2.5769690225305037e-09
2.7365253862177793e-09
3.473676617192453e-09
2.791817482373995e-09
2.1563603682977107e-09
2.489547668728098e-09
1.901959293600339e-09
9.195683767670441e-10
8.606468817394564e-10
6.794619957277681e-10
1.3062448144886326e-10
3.112116156711792e-11
3.5714393376707216e-11
4.32751751015385e-11
4.311317757184394e-10
6.009664652688174e-10
4.871964472369247e-10
1.0670292474728474e-09
1.881379746292918e-09
1.7345520589196161e-09
1.4862972336357326e-09
2.3466279424001883e-09
3.126610014442851e-09
2.597572150140775e-09
2.1282411805672267e-09
3.0128788956607053e-09
3.8354119970892556e-09
3.1540317396528493e-09
2.3183440292134088e-09
3.0609358775656842e-09
4.325277257831943e-09
4.050921717716968e-09
2.7504062949529127e-09
2.7668288486595853e-09
4.497272951639713e-09
5.6840614399784765e-09
4.805503414145148e-09
3.370895274983448e-09
3.8327629955962435e-09
6.210096001610216e-09
8.034405842648512e-09
7.501462425597199e-09
5.675949377695023e-09
5.160204515285369e-09
7.065397641670636e-09
9.831703234900981e-09
1.0991231900458172e-08
9.73479017297744e-09
7.628406409919902e-09
7.011772450493182e-09
8.84462669710903e-09
1.1971385598634863e-08
1.4218412749114894e-08
1.4160495055906287e-08
1.2093752298907479e-08
9.644575089470128e-09
8.54066295184018e-09
9.520531858095825e-09
1.2033457991388388e-08
1.4728505449580624e-08
1.6267672414530263e-08
1.5947706323553924e-08
1.3870385929851881e-08
1.0712494163369923e-08
7.324754175776634e-09
4.389461932639814e-09
2.256993924409356e-09
9.588954301957138e-10
3.2319708259817405e-10
1.0777222975942797e-10
9.71207228990364e-11
1.463025273825356e-10
1.8256327099398528e-10
1.8501172113611644e-10
1.6003449384112366e-10
1.223971821244637e-10
8.478928272025018e-11
5.4304030468434574e-11
3.294491685311507e-11
1.9612184875259495e-11
1.202231252633193e-11
7.946402985165419e-12
5.7452937520366215e-12
4.430672053926846e-12
3.5069755815499973e-12
2.772160721630424e-12
2.1630492982386338e-12
1.664419385925137e-12
1.2683239229377297e-12
9.623818281460949e-13
7.303129237607839e-13
5.553518540695957e-13
4.2283756948009473e-13
3.2129616772825566e-13
2.424282476251736e-13
1.805509634730184e-13
1.3188260825128605e-13
9.388111331109672e-14
6.472821945414121e-14
4.298060237494477e-14
2.7370120908267384e-14
1.6716800898175458e-14
9.914004676050628e-15
5.950255468324997e-15
3.941504886521174e-15
3.157522141642489e-15
3.0344525116619258e-15
3.1717151891442207e-15
3.3153411919199803e-15
3.331941930202133e-15
3.1781590564264093e-15
2.8700791802202078e-15
2.4560878659038327e-15
1.9953385257169358e-15
1.5427159909300215e-15
1.1400894274107034e-15
8.12888145512738e-16
5.706239385062115e-16
4.098870413707198e-16
3.1848281844826537e-16
2.7966164960828534e-16
2.75738815008592e-16
2.907353065492064e-16
3.11948131472184e-16
3.3055661943598053e-16
3.4148581792010607e-16
3.4278952373484606e-16
3.348020066091228e-16
3.1925969545203647e-16
2.9853112498811195e-16
2.7503033372908724e-16
2.508356345243459e-16
2.274972591649489e-16
2.0599474482831875e-16
1.8679618383951182e-16
1.6997314480881924e-16
1.553332767701882e-16
1.4254374331853979e-16
1.3122991045407623e-16
1.2104330594262181e-16
1.1169987580259058e-16
1.0299381987895652e-16
9.479412863323456e-17
8.703096785264753e-17
7.967793947519541e-17
7.273459369392369e-17
6.621184708242503e-17
6.012147450304017e-17
5.44697392297458e-17
4.925454058008361e-17
4.446514400299635e-17
4.00835176615976e-17
3.608642502914208e-17
3.2447633908458296e-17
2.9139843891063436e-17
2.6136152061523955e-17
2.3411022015239608e-17
2.094079558183504e-17
1.8703838868680515e-17
1.6680460004804176e-17
1.4852729246568257e-17
1.3204264167220808e-17
1.1719996212807114e-17
1.0385957720587554e-17
9.189141320776032e-18
8.117425668189151e-18
7.159516390007686e-18
6.304889589720428e-18
5.543762401616132e-18
4.867081668577038e-18
4.266499662742701e-18
3.73434263785303e-18
3.2635885804460556e-18
2.847836949864162e-18
2.4812612342080448e-18
2.158567910321639e-18
1.8749659476653633e-18
1.62612775204702e-18
1.4081480770295454e-18
1.2175138843090496e-18
1.0510720452898877e-18
9.059920919337005e-19
7.797391103729392e-19
6.700508678367254e-19
5.749097506481256e-19
4.925201250849893e-19
4.212904205478964e-19
3.5981039011681012e-19
3.0683154090354314e-19
2.6125312669993615e-19
2.221052016416088e-19
1.885339088083586e-19
1.5979138252370985e-19
1.352230023527149e-19
1.1425611251850605e-19
9.639220687843914e-20
8.119703709153807e-20
6.829253570847393e-20
5.735130190552509e-20
4.8089437972497716e-20
4.0261358314654416e-20
3.365582861451903e-20
2.8090691060154834e-20
2.340955291841949e-20
1.947859616497492e-20
1.6182866634829676e-20
1.3424293748758529e-20
1.1119143805339432e-20
9.195833919172268e-21
7.593710377605485e-21
6.261122993591642e-21
5.154364494871798e-21
4.236625749570765e-21
3.476741640463898e-21
2.8486448480506547e-21
2.330374862477338e-21
1.9034913649754758e-21
1.55257546653195e-21
1.2645858067747825e-21
1.0286474781979178e-21
8.355859495768588e-22
6.777530708098085e-22
5.488143819374843e-22
4.435264253747878e-22
3.5765836813783686e-22
2.877482405156583e-22
2.3102733230100645e-22
1.85213621558392e-22
1.4841315343481843e-22
1.1900307922931994e-22
9.555903495396081e-23
7.684262693471067e-23
6.178145465880899e-23
4.9513905650449897e-23
3.9382445501618927e-23
3.095534604330927e-23
2.3978167118020502e-23
1.8332978602966252e-23
1.3951821384410017e-23
1.0754941643445149e-23
8.591452335259558e-24
7.229366667364694e-24
6.3724762873487756e-24
5.717200516311684e-24
5.013703019946426e-24
4.124230899134262e-24
3.046745707877183e-24
1.904479206997835e-24
8.956157575422409e-25
2.2397078977727265e-25
2.181570697149379e-26
7.38973826603402e-12
4.731891086668775e-11
6.343254029023162e-11
4.189830072127844e-10
2.633361208427063e-10
1.2429735817970934e-09
5.019391552411735e-10
2.5699587775199442e-09
8.290116099694957e-10
4.1551961903882005e-09
1.8474516455545947e-09
5.162660679867386e-09
4.550989016703655e-09
4.409883386984497e-09
9.32560227850752e-09
3.5293558373078795e-09
1.3937739585354261e-08
6.5082348577463e-09
1.083620869723403e-08
1.5369973534910358e-08
7.449276269463189e-09
2.7707841457468944e-08
1.46397747261401e-08
1.2910274849677972e-08
2.3567471127540894e-08
1.872001820583886e-08
4.9116415058139525e-08
4.563848183979203e-08
6.5551152925082154e-09
1.7358746672133933e-08
8.007460277109297e-08
7.47899218619504e-08
9.924357669856832e-08
1.440903099434508e-08
1.3716600937843794e-08
1.0483620231273488e-07
1.72612851999585e-07
7.788927685120429e-08
7.05903945692804e-08
4.858713218613139e-08
5.8472086514834967e-08
1.3443061630245075e-07
3.343783271543294e-07
2.07245296852099e-07
4.373546428825621e-08
3.757355376787307e-08
2.2414439921547297e-07
3.7027122371555955e-07
4.272984439222651e-07
4.607939262314197e-07
1.1812561969185387e-07
8.45786884506816e-08
3.522207120810463e-07
9.569308273117075e-07
1.2617432689320776e-06
6.104519060455109e-07
7.248422738664414e-08
2.032220345577439e-07
1.5227390807552126e-06
2.683453720972202e-06
2.3343459781264412e-06
1.1682536829470356e-06
5.3558825375792616e-08
1.5530846463682825e-06
4.935281003039955e-06
6.586260333138813e-06
5.265511238648453e-06
1.3719790305685487e-06
7.583746298865805e-07
7.494968937654552e-06
1.5066484532260205e-05
1.5758268369925513e-05
7.877842671147365e-06
4.779039096363805e-07
8.968557686668419e-06
2.9574489183698925e-05
3.839193317458831e-05
2.5225462192349402e-05
4.8491227968582044e-06
8.92969497889768e-06
4.9496676392690835e-05
8.204431545465615e-05
6.365361064124147e-05
1.787769127150147e-05
1.0905721290005482e-05
7.079231277653362e-05
0.0001406866000172088
0.00012992247357189544
4.700044126674639e-05
1.775487737710555e-05
0.0001019503804344598
0.0001984976887694446
0.0001817075730422721
7.270004481868116e-05
9.848737384041817e-06
9.032778809906091e-05
0.00023834523849958949
0.000277156031969847
0.00014834227040639967
2.0503114036007986e-05
8.29088663050228e-05
0.00028556194365365417
0.00037866721136634295
0.00023924997628064565
4.475604997497883e-05
6.327127543747995e-05
0.00029758864115465546
0.000462896777132442
0.00034397048160865636
9.047137795132605e-05
3.8789890052211686e-05
0.0002775998456457484
0.0005155571034567662
0.00044705051834308904
0.00015686077987828815
2.1935556224892994e-05
0.00022756769803993987
0.0005182957533382682
0.0005216886277326792
0.0002316289768073127
5.252199920504518e-23
4.788173223268392e-24
4.2002942105483325e-25
3.8622533465633925e-26
1.5655270043707837e-08
1.5915678011169385e-08
1.5248931232954294e-08
1.5472152443424994e-08
1.4097233909893944e-08
1.3344896207407649e-08
1.3709850856660794e-08
1.2152309379265768e-08
1.3462516341888128e-08
1.4374838495401274e-08
1.3253203456002498e-08
1.574970347209211e-08
1.501468035325842e-08
1.2923437422984798e-08
1.4329864264113768e-08
1.1245087672390722e-08
8.499837908215222e-09
9.164694364270358e-09
6.7388732660626e-09
4.72347685028514e-09
6.540432781351389e-09
7.127575247647768e-09
5.7064448397546066e-09
8.261459887599042e-09
1.1175725284283941e-08
8.963470584908356e-09
9.664494283910513e-09
1.2910990354847166e-08
9.873109480850774e-09
7.2386821911182184e-09
9.21123304746511e-09
7.189976887426576e-09
3.0328069730228405e-09
3.0209801070834864e-09
2.8275484292693225e-09
6.358379538398955e-10
3.190855713478523e-11
1.1085209897142711e-10
2.196770935091233e-10
1.7552898414070098e-09
2.3189258172036555e-09
1.540253576853059e-09
3.727409949230817e-09
7.3058821192693145e-09
6.734674000418059e-09
5.1057184147215045e-09
8.332746466871686e-09
1.2137982350260831e-08
1.0321384709222283e-08
7.656798739285604e-09
1.067301124485745e-08
1.4727389112357597e-08
1.2819113386109272e-08
8.926550967566667e-09
1.0820721977646374e-08
1.6025350414692818e-08
1.6128855911592043e-08
1.134765449757302e-08
1.0341983537176435e-08
1.6127188455909717e-08
2.117011118803571e-08
1.892729125388467e-08
1.3725213551931516e-08
1.4623038349038422e-08
2.272275189062777e-08
2.961874526743886e-08
2.8375768916610418e-08
2.2242155926257088e-08
2.05503933723007e-08
2.764029035834676e-08
3.8025046812834216e-08
4.256403782330685e-08
3.808368907639206e-08
3.033949326457693e-08
2.8159257906837378e-08
3.5243977302579224e-08
4.721422854791742e-08
5.570579345718997e-08
5.517982017487443e-08
4.6776780874243515e-08
3.68836045965154e-08
3.2358948021732624e-08
3.621094227293911e-08
4.633654725722721e-08
5.739005835015816e-08
6.398975503943095e-08
6.322105273345164e-08
5.537089184547898e-08
4.305964059753199e-08
2.9661936264917896e-08
1.7931782279203283e-08
9.324655471361386e-09
4.023397962709929e-09
1.3815836677880648e-09
4.5098318146215266e-10
3.7204913868668003e-10
5.572397525652819e-10
7.048629119209579e-10
7.224782610932993e-10
6.302768092979885e-10
4.851524340303885e-10
3.3769852719189816e-10
2.1697341891241405e-10
1.3178503876309274e-10
7.831835306846898e-11
4.776535757400399e-11
3.1344185513788165e-11
2.252186439372762e-11
1.732020973766373e-11
1.3719644667202924e-11
1.0880014559844394e-11
8.528323740149126e-12
6.595025159054192e-12
5.048168466786826e-12
3.84272345681875e-12
2.919573387259064e-12
2.217241941748883e-12
1.6814196650355928e-12
1.269161874097101e-12
9.490209563230133e-13
6.990797692738611e-13
5.043434281757389e-13
3.543172330156106e-13
2.411405057476632e-13
1.5835965379203912e-13
1.0026120924088485e-13
6.161220707281196e-14
3.764471995452531e-14
2.414830832326956e-14
1.7575967558428305e-14
1.5110153789463496e-14
1.4667909653654065e-14
1.4846147964397947e-14
1.4820914902766222e-14
1.4219972699650812e-14
1.2988327274766359e-14
1.126317349376705e-14
9.269722319980692e-15
7.24385467768653e-15
5.382546607700754e-15
3.819183527422663e-15
2.618504651881098e-15
1.7849522354041038e-15
1.278388228137623e-15
1.0321186259908824e-15
9.69553090772447e-16
1.0172950205342226e-15
1.1137637791034476e-15
1.2134539600868233e-15
1.2875848481426045e-15
1.32220562248394e-15
1.3148625806328932e-15
1.2707887893548355e-15
1.1993299005668371e-15
1.1110452485874099e-15
1.015673454476516e-15
9.209575103568171e-16
8.321972465346274e-16
7.523341038285634e-16
6.823620075060528e-16
6.21882599032659e-16
5.696668422959567e-16
5.241344150178746e-16
4.837075694046298e-16
4.47031659363503e-16
4.1307821855179566e-16
3.811589022983404e-16
3.508819418069961e-16
3.2207983433083e-16
2.947306090242956e-16
2.6888748887669513e-16
2.4462475163670933e-16
2.220020104702937e-16
2.0104533888325018e-16
1.8174159529475517e-16
1.6404164112661643e-16
1.4786843693485153e-16
1.3312679770299015e-16
1.1971257936121792e-16
1.0752006718973538e-16
9.64471682812946e-17
8.639851898035762e-17
7.728683256634192e-17
6.903293929991086e-17
6.156508849434431e-17
5.48180196791563e-17
4.8732025030052135e-17
4.3252030443438244e-17
3.83268079097594e-17
3.3908492477323305e-17
2.995236390326856e-17
2.6416681161180058e-17
2.326251099763908e-17
2.0453646424159495e-17
1.7956585795547797e-17
1.5740452083872717e-17
1.3776875409952289e-17
1.2039909062912229e-17
1.0505915986958783e-17
9.153387329802098e-18
7.962785207793953e-18
6.916429487648065e-18
5.9983523928907355e-18
5.1941436290526054e-18
4.490839355687474e-18
3.87680439079501e-18
3.34159328513418e-18
2.875850147719818e-18
2.471226150998317e-18
2.1202754159873238e-18
1.8163706924477943e-18
1.553638578406411e-18
1.326875309126325e-18
1.1314735217698147e-18
9.633715275264145e-19
8.189907350537385e-19
6.951804871552004e-19
5.891815553670644e-19
4.985790897983608e-19
4.2126027151592117e-19
3.5538610141465956e-19
2.9935481926589053e-19
2.5177160388098925e-19
2.1142879875559556e-19
1.7727929332979184e-19
1.4841709728999988e-19
1.2406319020389992e-19
1.0354575270331675e-19
8.628790071158537e-20
7.179621204856921e-20
5.964670437336617e-20
4.947768323451814e-20
4.0980430113142245e-20
3.3890909239998316e-20
2.7985493311814257e-20
2.307374634225274e-20
1.8994473395137252e-20
1.561200872521387e-20
1.2811421701719537e-20
1.0496616935527452e-20
8.586649076349711e-21
7.01350807646563e-21
5.720377813278819e-21
4.659160338934602e-21
3.789772711139162e-21
3.078398952871496e-21
2.4968370316088524e-21
2.02175661938853e-21
1.6338218898012754e-21
1.317455030937428e-21
1.0598944438625243e-21
8.509398202173737e-22
6.821818247858855e-22
5.466334000040933e-22
4.383144405859922e-22
3.5196604163622666e-22
2.8302698345514674e-22
2.2754133861637644e-22
1.8234105247395746e-22
1.4500629261047985e-22
1.1395473324717597e-22
8.825282076406433e-23
6.746932879920071e-23
5.135196124489408e-23
3.960245324396956e-23
3.1657852469680524e-23
2.6657030745173104e-23
2.3504177825080406e-23
2.108056670752016e-23
1.846923569977787e-23
1.5169665711001158e-23
1.11820657944835e-23
6.96704014051285e-24
3.25766164548689e-24
8.034367857056246e-25
9.535779884758384e-26
1.4505899982713042e-11
9.285155988295225e-11
1.3041679147958998e-10
8.149872423919019e-10
5.399873196090341e-10
2.429468430743679e-09
1.0120540027093652e-09
5.069221022335411e-09
1.603085095819953e-09
8.302397919489525e-09
3.474618599926298e-09
1.0457320332056768e-08
8.642668481983259e-09
9.019696785701298e-09
1.8210476964916612e-08
7.044808373073357e-09
2.783124529672109e-08
1.2194486665317079e-08
2.1852129574915196e-08
3.0016249330149255e-08
1.5138083647425712e-08
5.5837440973869706e-08
2.718882430959621e-08
2.523868434327838e-08
4.7236158503865395e-08
3.816909721583896e-08
1.0192948507911254e-07
8.519449317072258e-08
1.0783294559130041e-08
3.761983202379967e-08
1.6782019874847395e-07
1.5252898722340312e-07
1.908348510946906e-07
2.227666539703594e-08
3.250890944806307e-08
2.2614434386389398e-07
3.380515054339623e-07
1.453238357771247e-07
1.3492398364684665e-07
9.699554367358503e-08
1.1804920689462898e-07
2.7671846228494346e-07
6.727987092095842e-07
3.947691221536338e-07
8.059014456023719e-08
7.929038886294154e-08
4.572268914360312e-07
7.31344353375484e-07
8.556528769845762e-07
9.20878054272274e-07
2.2411509375462923e-07
1.679620425202539e-07
7.083798071602792e-07
1.9423996259431297e-06
2.5337412991188967e-06
1.2098051209402567e-06
1.435207548208305e-07
4.106250127461514e-07
3.0758902905383837e-06
5.38911463233469e-06
4.698318390992317e-06
2.3721889756404546e-06
1.0506402903486818e-07
3.1030445283533922e-06
9.871115522227588e-06
1.3232305068182177e-05
1.065921738899456e-05
2.805853466817806e-06
1.479497407840586e-06
1.4887824966226899e-05
3.0069347884734078e-05
3.1650780666316825e-05
1.597999237946187e-05
1.0002705053780444e-06
1.776670527633371e-05
5.881000542147135e-05
7.658615814374907e-05
5.067553650200467e-05
9.919000752647428e-06
1.7866004997641554e-05
9.878727839348142e-05
0.0001638026902120341
0.00012720152374072794
3.5865896682545194e-05
2.1920245192916328e-05
0.00014177451449164926
0.00028209064420062815
0.0002603925404614777
9.421932165131507e-05
3.5488507768731524e-05
0.00020379918904979774
0.00039666662289696437
0.00036355001613081736
0.00014597895549398683
1.9741946707698095e-05
0.00017977226432584013
0.0004756498190068045
0.00055391917547884
0.00029682122123818495
4.133151157063629e-05
0.00016581928246229755
0.0005707925641554578
0.0007570606720365479
0.0004786022967103875
8.961912595403148e-05
0.0001262702549724658
0.000594653567135921
0.0009254729958448719
0.00068819601477894
0.00018135046771605143
7.750628474325828e-05
0.0005543956281674491
0.001030059957201697
0.0008933969497726527
0.0003135686682511391
4.386994657826165e-05
0.0004548279718746439
0.0010359675791567259
0.0010427831000970635
0.0004630071429595947
1.0495109341372607e-22
9.567699146423229e-24
8.394671751639365e-25
7.719281464597099e-26
3.1003486346849026e-08
3.147545667563671e-08
3.036416935632611e-08
3.117689560895851e-08
2.924963067620789e-08
2.783156736384651e-08
2.8663068393790427e-08