# vtk DataFile Version 4.1 
COMMENT
ASCII
DATASET STRUCTURED_POINTS 
DIMENSIONS 400 400 1 
ORIGIN 0 0 0
SPACING 0.002506265664160401 0.002506265664160401 0 
POINT_DATA 160000
SCALARS U double 1
LOOKUP_TABLE default
6.714147401852851e-07
1.9695392171404884e-10
7.439280157823813e-10
1.3779035934272868e-09
1.5820201113846833e-09
1.2257593712883522e-09
7.763425089133645e-10
4.324806018701531e-10
3.331345282445865e-10
2.446867179129221e-10
2.91581653586932e-10
5.620439086718474e-10
9.862622185442488e-10
1.2679968009312149e-09
1.2742637781313014e-09
9.28204709712282e-10
4.841467880036847e-10
1.6970213970940813e-10
1.6240515545120134e-10
5.224359531168273e-10
8.776532011934649e-10
1.017819832317724e-09
8.652598241530635e-10
5.052251790970707e-10
1.9466795031752696e-10
6.425369561756451e-11
1.188535184459499e-10
1.8165550638648075e-10
1.9288966228198638e-10
1.9044002834322687e-10
1.2346209041537498e-10
8.105763847957727e-11
9.409738282334899e-11
1.6359476462367607e-10
3.7258258928817616e-10
5.267177576427514e-10
6.628508004984733e-10
6.127621585988418e-10
4.913388411862968e-10
4.164634393481607e-10
5.517204408872173e-10
8.496869905400436e-10
1.4515460204074666e-09
1.9901793585136535e-09
2.0037348333887165e-09
2.0118545794094435e-09
1.8240452276032657e-09
2.2029538468698238e-09
2.7044925299671414e-09
2.7493649284754254e-09
2.7360976654608702e-09
2.5306614474755793e-09
3.0359599190211384e-09
4.0974471664231934e-09
4.805375534726924e-09
5.478647256711588e-09
5.143667997781246e-09
3.4876175980712403e-09
2.65856820006918e-09
2.7482303730836457e-09
3.883662248574928e-09
5.4595225101489045e-09
5.76742806100428e-09
4.698241694141979e-09
3.588673089656275e-09
3.0910173897136116e-09
3.2639180703621057e-09
3.261421864396716e-09
3.080672894859701e-09
2.712706879334e-09
2.565752004316172e-09
2.7606126115021913e-09
2.914151543220103e-09
2.9989617753465307e-09
2.7948039433539602e-09
2.3877768347309867e-09
2.2784491436676105e-09
2.271326282041285e-09
2.4746080825861447e-09
2.594136814992356e-09
2.249722270915391e-09
1.8001747342666559e-09
1.946107905526613e-09
2.9416354632126262e-09
3.84146793761005e-09
3.6723714283102824e-09
2.8629749407697124e-09
2.1954437211601275e-09
2.052710317310547e-09
2.166562292999583e-09
2.5578602640166646e-09
2.9532939221179136e-09
3.3235713360210517e-09
3.5215330685020224e-09
3.349589986205356e-09
3.162096218113797e-09
3.6057432211354604e-09
4.312961879292627e-09
4.754186248619859e-09
4.365302756476845e-09
2.9577122666764624e-09
1.913196758656164e-09
2.6384743161591817e-09
4.0297649419929494e-09
3.823684395124706e-09
2.724810803020438e-09
2.6270496345694778e-09
4.009098625343055e-09
4.787958930058762e-09
4.044337550788535e-09
2.6872870840370553e-09
2.4662845851867513e-09
3.040810353503014e-09
2.7520976808162383e-09
1.1809707790750171e-09
2.0106048134265129e-10
1.114038971761614e-09
2.6938614330911785e-09
3.077895336836503e-09
1.4072587375379465e-09
4.991028422178271e-28
4.548578735785792e-29
4.006502539070524e-30
3.6665935860765147e-31
8.056640241528821e-14
7.444094751023451e-14
6.74975961981004e-14
5.504607517403249e-14
7.563889338134279e-14
5.65148729973859e-14
6.722451690473792e-14
6.385789904076143e-14
3.54312956443492e-14
3.614237710380017e-14
4.7074167626794884e-15
8.421005634409612e-15
1.3117186499271211e-14
5.5779699201078026e-14
1.1067919292711613e-13
1.6334844562752419e-13
2.757424090644733e-13
3.142957076656272e-13
2.80512430976174e-13
3.7352827725724653e-13
2.2629153492055234e-13
3.8362841005310887e-13
3.040600584745967e-13
4.2302653740875935e-13
4.626488103359464e-13
4.1508584228503665e-13
5.95409209546847e-13
4.34937271830463e-13
6.23303681818367e-13
4.59437946658944e-13
4.974650998531182e-13
3.5452160281093855e-13
3.653357160663161e-13
1.9297307682740958e-13
2.3716596665718906e-13
2.465576019117145e-13
3.1466714094967594e-13
7.300537168232494e-13
8.069965759196757e-13
1.496360369759186e-12
1.97244947245126e-12
3.4872795424528055e-12
3.712445620385201e-12
6.157325245117723e-12
8.496388170471352e-12
8.886737780687307e-12
1.367990919851612e-11
1.4398961659505422e-11
1.7695617662003592e-11
2.0948994375679882e-11
2.1313686819180057e-11
2.7360873255111658e-11
2.4656237572370195e-11
2.5187594742081434e-11
2.8679865409382246e-11
2.7050406507953466e-11
3.019808026087054e-11
1.800715421248858e-11
1.2760089104520823e-11
2.965576783869339e-11
2.891540683349911e-11
1.1432595551271147e-11
7.380230896827077e-14
1.6660757796796606e-11
4.084319581865771e-11
2.708484874063468e-11
7.38155552897045e-12
1.5247024651889787e-11
2.954242612427343e-11
2.574514734028099e-11
5.502618935836398e-12
1.7930895046714218e-12
8.848315625582808e-12
1.296377770631605e-11
4.519340211241856e-11
8.555391986460297e-11
8.498560690999545e-11
4.6350524034305874e-11
8.273743998968642e-12
8.368105824786764e-12
1.901253547251176e-11
6.249383874146587e-12
7.1215128687487365e-12
2.8121744086603216e-11
4.5533215670905946e-11
6.354501788498949e-11
6.816406227847223e-11
6.5091091908023e-11
6.982670764490038e-11
5.3450847689694843e-11
3.2176446717693076e-11
4.06257561162253e-11
4.8305603486272535e-11
4.6059490147949334e-11
5.1318113997976626e-11
5.5939089730010776e-11
5.700906725852402e-11
4.593874208785751e-11
3.1576832374566015e-11
4.6240519939165464e-11
6.723910050357124e-11
7.875038772724588e-11
1.1013457693149545e-10
1.3500039437198259e-10
1.301219177513171e-10
1.2566424684789825e-10
1.184365313030201e-10
1.1831958716188947e-10
1.4812799169920478e-10
1.62216709773059e-10
1.6218622360114949e-10
1.9790877200512677e-10
2.1269167133209544e-10
1.6886225163721128e-10
1.424861923317394e-10
1.4033945826944397e-10
1.0947910091950717e-10
7.81262513108883e-11
7.702966826784195e-11
7.956477546442463e-11
7.549450860272826e-11
7.215178013455686e-11
6.954336043327065e-11
7.846731536034436e-11
9.717757737561374e-11
9.921806658040174e-11
9.703788590894326e-11
1.3700159353688284e-10
1.9157072003769748e-10
2.0399273848900744e-10
2.3864442673723224e-10
3.552467066646364e-10
4.4744415604388493e-10
4.739538226999175e-10
5.650464979116032e-10
7.15188536700109e-10
7.942683988806354e-10
8.481805366355374e-10
9.67629227969874e-10
1.0959157042539804e-09
1.1990477714083634e-09
1.2741729950937183e-09
1.25636583837963e-09
1.2000102378909187e-09
1.222359791122807e-09
1.2177021289197274e-09
1.0655776341431592e-09
8.925787175024396e-10
7.739053424424834e-10
6.00229564289907e-10
3.871199022322438e-10
2.5998255940094825e-10
1.9770994892907138e-10
1.2677466188354908e-10
7.914128281163002e-11
9.590078286344164e-11
1.5247188800033575e-10
2.0536312643035367e-10
2.4753904412571573e-10
3.283327703604902e-10
4.582579405167217e-10
5.531862900928738e-10
6.004258417703356e-10
6.999371484208589e-10
8.52261205857422e-10
9.983052873019227e-10
1.22839337248625e-09
1.6054833522678035e-09
1.975927510565216e-09
2.2629498747152376e-09
2.6302500791224445e-09
3.161701653996756e-09
3.723771050240201e-09
4.1784619895727145e-09
4.44615914401067e-09
4.482242381123471e-09
4.352916418005091e-09
4.123325305109513e-09
3.7124267387149114e-09
3.104882514379516e-09
2.489147081955016e-09
1.9625964976875363e-09
1.4460960041404689e-09
1.0049113094405766e-09
8.25989991680061e-10
8.633275211443148e-10
9.351041920355497e-10
1.102642757916682e-09
1.4916644960159057e-09
1.957168530195422e-09
2.244170382525763e-09
2.375169541298971e-09
2.5358043424423246e-09
2.7583283170793682e-09
2.939651031976695e-09
3.025914590729061e-09
3.1363426368897985e-09
3.5240524078868416e-09
4.175318780380351e-09
4.653057165844834e-09
4.723825653920312e-09
4.836126692486335e-09
5.2267898874274505e-09
5.399233009031614e-09
5.001195717411286e-09
4.472186258490775e-09
4.171354393848294e-09
3.8220518885374285e-09
3.21854634854162e-09
2.6083683568195918e-09
2.126831302274454e-09
1.636522855413196e-09
1.1777630977800255e-09
9.560020997957187e-10
9.433114343990884e-10
9.522031471282591e-10
1.076414251200381e-09
1.6108287702605906e-09
2.6093092350305726e-09
3.733461168549335e-09
4.69787013922471e-09
5.708943408847612e-09
6.819708320840469e-09
7.553442488896216e-09
7.654336773795355e-09
7.2159432753089565e-09
6.118122736293731e-09
4.526059520066329e-09
3.042194959292078e-09
1.8422306223827207e-09
7.96199291744987e-10
1.1565829865475548e-10
6.837081774901737e-11
6.188338483295002e-10
1.441238549224182e-09
2.1941378744979086e-09
2.945059676535632e-09
3.764287776447073e-09
4.309705891218465e-09
4.296811742972974e-09
3.809227476599806e-09
3.0393832927635e-09
2.3115470996766285e-09
1.8204868962486694e-09
1.4566047677903008e-09
1.0960997132630068e-09
7.300618116779665e-10
3.5262219988633545e-10
7.689834823923554e-11
7.344305760733192e-11
2.644122823154893e-10
4.685954858860264e-10
5.919332909276143e-10
7.40025358221756e-10
1.0647141968294213e-09
1.4970906449228397e-09
1.7270139846130324e-09
1.5618119501054196e-09
1.097337999802046e-09
6.444048589524415e-10
3.800422985453503e-10
2.442221622547226e-10
1.4052543047006887e-10
8.314491881860773e-11
8.645613738978457e-11
6.489698789433752e-11
1.9595269314535536e-11
4.645425944264525e-11
2.1291755021182808e-10
3.7795932983360773e-10
4.3002341143843e-10
4.4816774214501346e-10
4.489401874331486e-10
3.457319838708518e-10
1.2744518044916305e-10
3.7955505496925603e-31
2.0472100630109784e-10
1.2433489523109436e-09
4.696337655874182e-09
8.698557380140237e-09
9.987123033177367e-09
7.738087248089478e-09
4.900966869262541e-09
2.7302035854394733e-09
2.1030424937304604e-09
1.5446809675774757e-09
1.8407236593479031e-09
3.5481228244567727e-09
6.2261674479944545e-09
8.004727604563339e-09
8.044290358470814e-09
5.859656630886618e-09
3.0563666688651236e-09
1.0713113797193679e-09
1.025246301890437e-09
3.2980820554589777e-09
5.540530387511459e-09
6.4253872740391e-09
5.46229232946888e-09
3.189432287738214e-09
1.228917860428423e-09
4.0562667873247296e-10
7.503094955011515e-10
1.146771699601217e-09
1.217691719071834e-09
1.2022274431397004e-09
7.79402915322228e-10
5.117081650534746e-10
5.940266704537896e-10
1.0327561768164277e-09
2.3520738658523946e-09
3.3251126275083987e-09
4.184505904557775e-09
3.868301688431511e-09
3.10176932808482e-09
2.6290889588943507e-09
3.4829518812101027e-09
5.36398270359927e-09
9.163454111490323e-09
1.2563788518572621e-08
1.2649362775420662e-08
1.2700621859880833e-08
1.1515001595149886e-08
1.3907011008756076e-08
1.7073170843226538e-08
1.7356445475117115e-08
1.7272690668786668e-08
1.597579389122678e-08
1.9165688866319713e-08
2.5866743841325226e-08
3.033581958950746e-08
3.4586111652062045e-08
3.247142357166101e-08
2.2016955280123143e-08
1.678325548146434e-08
1.734928314879514e-08
2.451714261829175e-08
3.446537918126388e-08
3.640915385066387e-08
2.9659495161493614e-08
2.265490774379606e-08
1.9513260764896914e-08
2.0604764189998912e-08
2.0589005909865118e-08
1.944795708002047e-08
1.712502714844918e-08
1.619731680736908e-08
1.7427450889914383e-08
1.839672567372688e-08
1.8932123559394465e-08
1.7643297095290965e-08
1.5073778678677336e-08
1.4383604708241857e-08
1.4338638847884906e-08
1.5621935019556437e-08
1.6376507068261763e-08
1.4202255046205173e-08
1.1364309734724231e-08
1.2285570169725451e-08
1.857022870850125e-08
2.425077446540047e-08
2.3183286365404404e-08
1.80736532795051e-08
1.3859600391838116e-08
1.2958539744801033e-08
1.367727503810998e-08
1.6147497098536125e-08
1.8643827307296826e-08
2.098134884854997e-08
2.2231060001980216e-08
2.1145601792414517e-08
1.996197377377607e-08
2.2762669650265073e-08
2.7227265074524352e-08
3.001266712472348e-08
2.7557687410082224e-08
1.8671719841906006e-08
1.2077805634627058e-08
1.6656404950690805e-08
2.5439473228467896e-08
2.41385088718794e-08
1.7201437918559318e-08
1.6584282162977707e-08
2.5309008991294286e-08
3.0225870435012266e-08
2.5531468542502486e-08
1.6964554711163555e-08
1.556938967452835e-08
1.919630913820264e-08
1.7373697047110735e-08
7.455341676336994e-09
1.2692732221472072e-09
7.032808366133495e-09
1.700605787056972e-08
1.9430422654566678e-08
8.883873251778058e-09
3.1507826326399313e-27
2.8714688981182624e-28
2.529262017750998e-29
2.3146811467999694e-30
5.086070445449027e-13
4.69937705684598e-13
4.261050746593436e-13
3.474999598933134e-13
4.775002092935905e-13
3.567723227837285e-13
4.243811544126932e-13
4.0312805745692993e-13
2.2367396361053777e-13
2.2816294448444873e-13
2.971741638364656e-14
5.3160904042058976e-14
8.280738940966603e-14
3.5213124957507726e-13
6.987058565319986e-13
1.031201191451656e-12
1.7407322100230784e-12
1.9841150429552983e-12
1.7708448459878706e-12
2.358043892421674e-12
1.4285541532338755e-12
2.4218049458734008e-12
1.919498489057135e-12
2.6705210919869153e-12
2.920652245017327e-12
2.6203923366070893e-12
3.758754385003716e-12
2.7457122790198927e-12
3.9348491922166205e-12
2.9003824075138607e-12
3.140443741006829e-12
2.2380567982116755e-12
2.306325133613328e-12
1.21821830613726e-12
1.4972032727287113e-12
1.556491657304034e-12
1.9864598613806242e-12
4.608750696829359e-12
5.094482701619018e-12
9.446362285290766e-12
1.2451861652286229e-11
2.2014821171315636e-11
2.343627043547231e-11
3.887053289383048e-11
5.363678589513012e-11
5.61010210556853e-11
8.63597973660994e-11
9.089909831653021e-11
1.1171053355561489e-10
1.3224875129313814e-10
1.3455101551613745e-10
1.7272625393794835e-10
1.5565217938663404e-10
1.5900658012419628e-10
1.8105290973056424e-10
1.7076631071139525e-10
1.906372370115489e-10
1.1367723033565899e-10
8.05530719136149e-11
1.8721367694190924e-10
1.825398574407333e-10
7.217274770240737e-11
4.659060491674516e-13
1.0517757438427198e-10
2.578387081009134e-10
1.7098374082675803e-10
4.659896717718316e-11
9.625282889421163e-11
1.8649816287318311e-10
1.6252634978806796e-10
3.473744228749991e-11
1.1319581441337375e-11
5.58584661175609e-11
8.183893617788412e-11
2.853010931634305e-10
5.400927064767401e-10
5.365050078386702e-10
2.926058795660258e-10
5.2231257155377734e-11
5.2826953226052834e-11
1.2002409423887067e-10
3.945168913056894e-11
4.4957345795242657e-11
1.775295497695109e-10
2.8744629965766694e-10
4.011528723281378e-10
4.3031240343741286e-10
4.109130715666419e-10
4.408085050454552e-10
3.3742946013333145e-10
2.031264519506082e-10
2.5646603461537266e-10
3.049480861447639e-10
2.907686139023659e-10
3.2396574142146916e-10
3.5313746486356774e-10
3.598921180712591e-10
2.900063443689534e-10
1.9934115100899989e-10
2.919114355293067e-10
4.2447321910565543e-10
4.971427388834142e-10
6.952677542506441e-10
8.522429888330359e-10
8.21445689940027e-10
7.933048923398673e-10
7.476771004577989e-10
7.469388446561967e-10
9.351161006812953e-10
1.0240566645658956e-09
1.0238642086372511e-09
1.2493768196349025e-09
1.342699675206118e-09
1.066009256534735e-09
8.995000272787504e-10
8.859479257312602e-10
6.911298045938008e-10
4.932026327274986e-10
4.862800217643454e-10
5.022838811921528e-10
4.76588723695042e-10
4.5548643792895735e-10
4.390197645336946e-10
4.953557334369008e-10
6.134716078083886e-10
6.263529969825448e-10
6.125897505840189e-10
8.648763442056538e-10
1.2093653783555716e-09
1.2877842465487491e-09
1.5065366324077544e-09
2.242634300954275e-09
2.824666895653571e-09
2.99201957376244e-09
3.5670778478093463e-09
4.5149084114299635e-09
5.014131087147e-09
5.3544726219133e-09
6.108539379929353e-09
6.918398125037699e-09
7.56945978722808e-09
8.043717254905858e-09
7.93130258729521e-09
7.575535734750756e-09
7.716626063664499e-09
7.687222742471302e-09
6.7268771471401795e-09
5.634753568771118e-09
4.88558129911595e-09
3.789184766726463e-09
2.4438463609675977e-09
1.6412419719146378e-09
1.2481216709120061e-09
8.003148231865924e-10
4.996104175638018e-10
6.054113411977526e-10
9.62538651438117e-10
1.2964353584245834e-09
1.5626873965810825e-09
2.0727295119808e-09
2.89293315548636e-09
3.492205629793718e-09
3.790423845377597e-09
4.418628035424937e-09
5.380233448392928e-09
6.302194047475947e-09
7.754715414725057e-09
1.0135243952608473e-08
1.2473818133312097e-08
1.4285759488173082e-08
1.6604486225670287e-08
1.995948293288662e-08
2.3507766657645184e-08
2.6378181717798994e-08
2.806812509953218e-08
2.8295914699605877e-08
2.7479493785767467e-08
2.6030109751195785e-08
2.3436151237515924e-08
1.9600789807614036e-08
1.5713718160890286e-08
1.2389660880943334e-08
9.129048744200974e-09
6.343897155662655e-09
5.2143860951689445e-09
5.4500939081296834e-09
5.903212321697269e-09
6.960865292235329e-09
9.41671773874871e-09
1.2355394705201486e-08
1.4167206571148086e-08
1.499419018943197e-08
1.6008260434736544e-08
1.7413030384586692e-08
1.855770120726311e-08
1.9102273787813657e-08
1.9799394181786003e-08
2.2246964320906035e-08
2.635833897579006e-08
2.937425008777285e-08
2.98210039515168e-08
3.052994834535943e-08
3.299616313260139e-08
3.4084778036604435e-08
3.157201136910265e-08
2.8232431477586924e-08
2.6333312229441008e-08
2.4128203033146826e-08
2.031833738367235e-08
1.6466349263160298e-08
1.3426457561298905e-08
1.033119300191e-08
7.435091928869332e-09
6.035138568674068e-09
5.955023761171338e-09
6.011156188542426e-09
6.795287546625671e-09
1.0168989002227971e-08
1.6472288926243385e-08
2.35689393336832e-08
2.9657149575210823e-08
3.603994652362806e-08
4.305208610211894e-08
4.768407109224967e-08
4.832100587543025e-08
4.5553474808776145e-08
3.8623051666495294e-08
2.8572527591208826e-08
1.9205050005823926e-08
1.1629804039039394e-08
5.026320606396085e-09
7.301384161684296e-10
4.316176285146778e-10
3.906631613520949e-09
9.098384153069698e-09
1.3851356722124822e-08
1.8591845399403354e-08
2.3763544398154074e-08
2.7206710371548584e-08
2.7125310998677765e-08
2.4047243898096975e-08
1.918730025703939e-08
1.4592548549366247e-08
1.1492538231520416e-08
9.195389440341422e-09
6.919559754146667e-09
4.608801798777692e-09
2.226066071569784e-09
4.854510125292702e-10
4.6363813391421753e-10
1.6692063368629993e-09
2.958192969012963e-09
3.736811284120374e-09
4.6717005978912644e-09
6.7214263601232015e-09
9.45097243395765e-09
1.0902453780598144e-08
9.859551081646582e-09
6.927376924059183e-09
4.068058656917054e-09
2.399166209120977e-09
1.5417482776067166e-09
8.871219482579181e-10
5.248849416321136e-10
5.457883088030533e-10
4.096877137775974e-10
1.2370283039020422e-10
2.9326075005631e-10
1.3441256243114745e-09
2.3860166513822814e-09
2.714691606178927e-09
2.8292348169872276e-09
2.834111181120331e-09
2.1825688779648456e-09
8.045477348687042e-10
1.3661031167922603e-10
5.607448343350529e-10
3.375904964235702e-09
1.0911181546463163e-08
2.2233082890210972e-08
2.3843830797381723e-08
1.822624482701824e-08
1.161746981193763e-08
5.9434354809509285e-09
4.952462559324715e-09
3.398664653398814e-09
4.079632058116857e-09
8.485882133975765e-09
1.5517321447853417e-08
1.9645814827950257e-08
1.9148795405473582e-08
1.316530815536804e-08
6.416196402782139e-09
2.344013346159738e-09
2.9800872295628053e-09
9.365726416605718e-09
1.5743881685150684e-08
1.781876701062589e-08
1.3372226948948257e-08
7.326794856009243e-09
2.333338896490107e-09
8.776402446206113e-10
2.7621217293336548e-09
5.048575424734814e-09
4.997723939839039e-09
4.32826107805592e-09
3.250104849631573e-09
1.6456014111013305e-09
1.6497788920271174e-09
2.6520223013593034e-09
6.851801383036164e-09
1.1230099426255279e-08
1.5733316264077825e-08
1.6942972815347164e-08
1.3098894480803586e-08
9.955713232516087e-09
1.1768353721186446e-08
2.067558316177255e-08
3.6256091293352063e-08
4.57845021636936e-08
4.0438960259654876e-08
3.7725498172280204e-08
3.62262406809003e-08
4.5823308667807994e-08
6.191384548675951e-08
6.313301069372281e-08
6.329626845191245e-08
5.455297574521657e-08
5.8692666528475053e-08
7.797922676840144e-08
9.338265965358103e-08
1.0885920560558117e-07
1.0268788589905201e-07
7.283569742930141e-08
5.4686323349068906e-08
5.6788679524184235e-08
7.682025700363052e-08
1.0756170963404917e-07
1.1034326903251396e-07
8.708353644058846e-08
6.57095411549716e-08
5.693198506717815e-08
6.213729891045961e-08
6.536532979749708e-08
6.100448655467353e-08
5.254185038000788e-08
4.886016291334636e-08
5.1969922757313335e-08
5.119865672391289e-08
5.275039508740552e-08
5.120344907533909e-08
4.688167385039996e-08
4.6145318423475944e-08
4.500203688165616e-08
4.9127789589438803e-08
5.247562503258953e-08
4.54907454971452e-08
3.56126602258915e-08
3.8420386309494285e-08
6.207860075102273e-08
7.956885404840354e-08
6.971472643962242e-08
5.174276084668334e-08
3.991129943931457e-08
4.093025840350078e-08
4.918510468536133e-08
5.60501060449026e-08
5.965026318777236e-08
6.637426615373017e-08
6.85170387580607e-08
6.394636889071839e-08
6.143663287415907e-08
6.836874191408142e-08
8.420584993291469e-08
9.761675035428339e-08
9.164094154949718e-08
6.162790906628067e-08
3.856192885090319e-08
5.526129278090436e-08
9.061775286441671e-08
8.567699381029998e-08
6.035363745389796e-08
5.616929398737656e-08
8.773433097467204e-08
1.0890541859345418e-07
8.969199814169027e-08
5.557455408497141e-08
4.822432398272823e-08
6.412610224082396e-08
6.33806511626303e-08
3.151000643641429e-08
6.764805992431637e-09
2.8020056485011324e-08
6.548031975392995e-08
7.489792022203228e-08
3.616716273903137e-08
7.420837876853704e-27
6.762592351329081e-28
5.940166878961909e-29
5.624538718190002e-30
2.042604891555152e-12
1.6902202118376004e-12
1.5476193472302035e-12
1.0905976729126607e-12
1.6807904558103458e-12
1.4793956144654595e-12
1.577267337488227e-12
1.910989682979124e-12
8.109535516751322e-13
1.055987334370418e-12
4.2691619968722957e-14
4.709941567009828e-13
6.013277869999545e-13
2.9620282193443968e-12
3.2733383427994175e-12
7.463972533808847e-12
7.406368288177254e-12
9.751233570302644e-12
8.119883855368592e-12
8.600565810471648e-12
7.582115520572834e-12
9.693818991635443e-12
1.062770676889684e-11
1.3407208704703783e-11
1.6711494211059495e-11
1.5055935131172663e-11
2.2695296960084576e-11
1.6828882675742443e-11
2.5407981087361298e-11
2.0225825334772923e-11
2.17828553206774e-11
2.073084595736841e-11
2.1171519713027243e-11
2.0812669859274134e-11
2.2420913338972006e-11
3.043525151807403e-11
2.7075615894845428e-11
4.7780285405245e-11
4.7205998824343946e-11
6.055889359229444e-11
7.664102549964332e-11
9.950186511138118e-11
1.1648487894681645e-10
1.5328008813073885e-10
2.0102364154640338e-10
2.1512301240716485e-10
2.9447950080394557e-10
3.071329782382449e-10
3.5950938041966306e-10
4.24483777572742e-10
4.1043996105028457e-10
4.988823556464811e-10
4.6513463498232294e-10
4.4554539241537444e-10
4.852725205293831e-10
4.746264696748085e-10
5.095089830637976e-10
2.678708652201501e-10
1.9056280135481697e-10
5.038141578227966e-10
4.6037921152967974e-10
1.311250078535949e-10
8.047065099963235e-12
2.957873944882908e-10
5.559051789013894e-10
3.052171093700409e-10
1.494858889777362e-10
3.485988314172752e-10
4.13943482848451e-10
2.0916631024504783e-10
1.074190833137505e-11
1.3132507557701318e-10
2.087476027507026e-10
8.275165125854479e-11
3.7829812482544193e-10
8.47364043058976e-10
7.497790152653332e-10
2.4856268572316553e-10
3.847237898993971e-11
4.0568575770805675e-10
5.701732585817097e-10
1.7941602153566705e-10
1.3974016366221944e-10
4.5988150085775913e-10
5.746798345368618e-10
6.9544951533073e-10
8.205517800505612e-10
1.0190581417192668e-09
1.3178699231337981e-09
1.1085219581189512e-09
7.859465315016298e-10
9.656685035223803e-10
9.847376012499778e-10
7.619418229026683e-10
8.074881673783901e-10
9.747612039759836e-10
1.065995544155269e-09
9.619300262528178e-10
1.0059813336539039e-09
1.6006892176729553e-09
2.076720982916369e-09
2.4394211126499033e-09
3.30352800883334e-09
3.8187859590282195e-09
3.6671776329223316e-09
3.5462257177033417e-09
3.301087992076203e-09
3.407415902170689e-09
4.169445169421031e-09
4.2921231112648665e-09
4.242707503259524e-09
5.042060116792267e-09
4.944508891748622e-09
3.6134515361177283e-09
3.0357740258097993e-09
2.8185661433423133e-09
1.9342079924934185e-09
1.3722409276204913e-09
1.3851461175863041e-09
1.2466878044788349e-09
1.0777571948839238e-09
1.012613906896313e-09
8.95374387300077e-10
9.567786829125211e-10
1.2233577996066596e-09
1.2500222036107456e-09
1.1973486811626753e-09
1.9284775684228152e-09
3.033961113228421e-09
3.3058490072729514e-09
4.021289899379103e-09
6.567974651230877e-09
8.523755506698893e-09
8.978259015085333e-09
1.1128992218019669e-08
1.461188129052452e-08
1.6212270221843067e-08
1.74541344969121e-08
2.0418892361078837e-08
2.3310962339289635e-08
2.570146101827692e-08
2.7734054213789732e-08
2.7423031210240612e-08
2.6391891818509745e-08
2.7587400191541485e-08
2.755311409325567e-08
2.3838687349696433e-08
2.081113493960894e-08
1.9306600963893736e-08
1.546247211573635e-08
1.0849661520970695e-08
8.946385896173294e-09
7.799457224890329e-09
5.701110518988083e-09
4.4858135019291636e-09
4.718091349223485e-09
5.489422007000919e-09
6.2947315913390856e-09
6.6727466838508635e-09
7.724456131758685e-09
1.0654492506012128e-08
1.3427976824754884e-08
1.5384019022754316e-08
1.977182338846063e-08
2.630642608992746e-08
3.203616804619193e-08
3.9855783937337085e-08
5.2430069637996696e-08
6.42997314754996e-08
7.276625281645072e-08
8.373538131834941e-08
9.856644387118967e-08
1.1103989248144784e-07
1.1875391181407877e-07
1.2219882190948657e-07
1.187682270808715e-07
1.0921921799216754e-07
9.857084710314184e-08
8.615842255378059e-08
6.92190162074045e-08
5.304823294799245e-08
4.2763875273438794e-08
3.499503319364244e-08
2.9109814943957264e-08
3.0871223691224526e-08
3.8359834984463236e-08
4.3298093410723895e-08
4.834186585129405e-08
6.009079568962152e-08
7.213192047193014e-08
7.36889064615287e-08
7.02197860277734e-08
7.154112010335155e-08
7.453594919752594e-08
7.250440164824428e-08
6.93440644142423e-08
7.366584313521209e-08
8.940801590598247e-08
1.1064873723603955e-07
1.2498308075423265e-07
1.3068609550540083e-07
1.4192479194758688e-07
1.5899970496629438e-07
1.6334310832281022e-07
1.4955079607015684e-07
1.3522316933438542e-07
1.2731545530776427e-07
1.1489134086065769e-07
9.479388685870749e-08
7.583850087340789e-08
6.093249796782892e-08
4.6605803782656075e-08
3.4646853019008626e-08
2.9286857976399638e-08
2.905716410726244e-08
2.934423821421156e-08
3.2763722996892067e-08
4.845042948261933e-08
7.971620240117738e-08
1.1334333659250423e-07
1.3886835314913805e-07
1.669960810180762e-07
1.998340160436407e-07
2.1928981211149577e-07
2.1972767627204635e-07
2.0447425134213815e-07
1.6767215863651724e-07
1.2018257127048503e-07
8.128175534068083e-08
4.8133539788383137e-08
1.7770244624195054e-08
1.4072592915188987e-09
3.235621471009376e-09
2.120614247723768e-08
4.613672069784218e-08
6.696378621526077e-08
8.878886533074276e-08
1.1125801292736427e-07
1.207220387159477e-07
1.1561373916742506e-07
1.0271689567518751e-07
8.155334673594565e-08
6.060520924698346e-08
4.764115988052905e-08
3.857090986162197e-08
2.9489254466325752e-08
2.0750702530078227e-08
1.0697641393083968e-08
3.0263492566099446e-09
3.1588641114872326e-09
8.256522122571051e-09
1.369164565456837e-08
1.6071873363318192e-08
1.954114247081004e-08
3.0548639636082765e-08
4.3946704869285126e-08
4.7631158981089446e-08
4.1603915291405925e-08
2.9103477975245806e-08
1.6956817260299742e-08
1.0627271122297686e-08
7.721184032217466e-09
4.442868877231185e-09
1.882973131483535e-09
1.873420713284313e-09
1.6140527334549754e-09
6.998637068851797e-10
2.2348930723447487e-09
7.923402774960336e-09
1.2128747349310383e-08
1.2209436619353322e-08
1.2013416554363875e-08
1.2020116966316327e-08
9.592862058877933e-09
3.779346355447701e-09
4.95258753811532e-10
6.9685232849894e-10
4.614971148782617e-09
1.6832449432921572e-08
3.1269572440298497e-08
3.360908068402423e-08
2.5096385970067248e-08
1.4953525725875892e-08
7.84292621992211e-09
6.457234395616566e-09
5.598306630753735e-09
6.7285036724601845e-09
1.3585458406260908e-08
2.3343086334572118e-08
3.021391735856938e-08
2.8037260583886404e-08
2.1102502947926357e-08
1.0732447543434126e-08
3.3734647825923545e-09
4.307766368860984e-09
1.4330587672159718e-08
2.3816914990872363e-08
2.7509397238897066e-08
2.2960486082428255e-08
1.1446390347982166e-08
2.8818897336691822e-09
6.470403160904034e-10
3.362142997548946e-09
5.481245011780248e-09
5.210828747496901e-09
5.1032063536244125e-09
3.719766014844187e-09
2.674079339403952e-09
3.342646943091474e-09
3.929609129553226e-09
7.715944970879889e-09
1.4638133580944956e-08
2.316044076104095e-08
2.945219770356188e-08
2.6572767081487664e-08
2.190560965899272e-08
2.6622138264562148e-08
4.478650515393803e-08
6.866368500598584e-08
8.297568784348713e-08
7.57001703220264e-08
6.862447514331571e-08
7.199251060465832e-08
9.739323589696334e-08
1.3214332703362717e-07
1.369169710728396e-07
1.4008463756863236e-07
1.21015229604448e-07
1.1695644681341157e-07
1.4977740687389228e-07
1.8210982312918367e-07
2.1763398756643069e-07
2.0612306598359048e-07
1.5491250799101446e-07
1.2470911583178045e-07
1.2450402941670976e-07
1.6576321528579155e-07
2.103228172783771e-07
2.1181075192637096e-07
1.769313041616342e-07
1.4394948088300554e-07
1.3712576464721035e-07
1.4300026596347788e-07
1.4651762626579937e-07
1.3653303039626732e-07
1.2829770612440407e-07
1.2217657752477174e-07
1.2206604899166024e-07
1.2162968040536793e-07
1.2228180448171151e-07
1.1982301016189524e-07
1.1067463148265348e-07
1.0722423791247984e-07
1.0741312750078759e-07
1.1366123798329356e-07
1.2399936692788883e-07
1.0932975194937424e-07
8.577494583598075e-08
8.814473332992691e-08
1.2679713763295063e-07
1.5943490674952998e-07
1.4771203147769193e-07
1.1273638413591527e-07
9.28932895143609e-08
1.0107943295359458e-07
1.1895780659846479e-07
1.3152798214166774e-07
1.3279131394333012e-07
1.3932321064193284e-07
1.507764656202144e-07
1.4825168998644023e-07
1.3954319898347815e-07
1.4218129197206416e-07
1.681953386287304e-07
1.9765610341116928e-07
1.9436579510478635e-07
1.3668214202969435e-07
9.137854529758252e-08
1.2723624249517098e-07
2.0134921277311877e-07
1.9385102024307048e-07
1.2693499463483023e-07
1.1406004114986424e-07
1.7068573493904077e-07
2.1182605460374713e-07
1.7282742741846194e-07
1.0399537050098732e-07
9.42928916461863e-08
1.4088534666247717e-07
1.3881704140849642e-07
7.62597967448063e-08
2.046046721475184e-08
5.405205822235798e-08
1.3757080655273984e-07
1.548529988846399e-07
7.252125531507736e-08
1.5625367014552545e-26
1.4245757824300999e-27
1.255161778461148e-28
1.096050738625181e-29
4.676486260818494e-12
4.99735570330174e-12
4.837750638298229e-12
4.023135461222316e-12
2.9934993443133414e-12
1.526457557205993e-12
6.061323714572224e-13