# vtk DataFile Version 4.1 
COMMENT
ASCII
DATASET STRUCTURED_POINTS 
DIMENSIONS 400 400 1 
ORIGIN 0 0 0
SPACING 0.002506265664160401 0.002506265664160401 0 
POINT_DATA 160000
SCALARS U double 1
LOOKUP_TABLE default
5.155915230073999e-07
9.79084092131919e-08
2.8923898559157097e-07
3.420144354766447e-07
2.0492086312123465e-07
8.74587369100679e-08
1.678058093254457e-07
3.6597458743095644e-07
4.4257685295247574e-07
3.2734315453696465e-07
2.214053095401439e-07
2.98683812835696e-07
4.825300187016992e-07
5.705946572195796e-07
4.803366192492292e-07
3.8961734555376756e-07
4.5063342777820103e-07
6.161822676717368e-07
7.163618835322704e-07
6.758081333715372e-07
6.366310912224195e-07
7.071493594350816e-07
8.606726067365173e-07
9.407843608792808e-07
9.183703524022725e-07
8.862272486814575e-07
9.643657599178172e-07
1.0980468833124876e-06
1.1884807587366432e-06
1.2152261064589935e-06
1.2320549328807792e-06
1.3370983596242372e-06
1.4476408703686645e-06
1.5233068074477758e-06
1.5222085436059235e-06
1.570193955823977e-06
1.6571787682256282e-06
1.8099557244520974e-06
1.8801202837126819e-06
1.9002179150127346e-06
1.885885668914858e-06
1.940247246936544e-06
1.994542046308378e-06
2.048787828094245e-06
2.0662776906423595e-06
2.15090875020222e-06
2.258875020744837e-06
2.3609983152453082e-06
2.3511650505805328e-06
2.3125145266462203e-06
2.2453248471567404e-06
2.20835825761337e-06
2.143752906414692e-06
2.0899293411376464e-06
2.0213334701698243e-06
2.035711812574e-06
2.007166354423673e-06
1.983418357219007e-06
1.9091054196396343e-06
1.8982212689404714e-06
1.8692928928087344e-06
1.8786627064931904e-06
1.7935202289120255e-06
1.7334733788676917e-06
1.6419855172967118e-06
1.5750368837216463e-06
1.4558600826467215e-06
1.3657731975900857e-06
1.3044925344879354e-06
1.2449088837183888e-06
1.1449672286634737e-06
1.011011967739686e-06
9.241329588126864e-07
8.242770237584827e-07
7.829550568748737e-07
7.371765126755496e-07
7.269540333314056e-07
6.641747970809991e-07
6.037320934516617e-07
5.327673116293821e-07
4.935862511764247e-07
4.71111556317745e-07
4.476855283605509e-07
4.4747284650288613e-07
3.996908637438903e-07
3.566741751013296e-07
2.8607640532033565e-07
2.3821709144646406e-07
2.0769702609835487e-07
1.9213503509011328e-07
1.8659051332982466e-07
1.5339062572216726e-07
1.2271967613782768e-07
7.606354149682812e-08
5.63540409422021e-08
5.915135318936492e-08
7.006788593909885e-08
8.717429907589096e-08
7.692596955172558e-08
5.926213188675901e-08
3.633667162354118e-08
3.088678113087331e-08
4.539248436969965e-08
5.488632102632616e-08
6.064977664179825e-08
3.99668894803066e-08
1.6364500850785876e-08
6.819412890317541e-09
7.45231486755339e-09
2.448457484238887e-08
2.9261338246572057e-08
2.3455672876871797e-08
1.601409000051763e-08
2.9404894327702074e-09
2.6095698909586033e-09
1.2147720674010431e-08
2.3095020442963883e-08
3.223954815891529e-08
2.3679014218776683e-08
6.723212661081729e-09
2.699653770688053e-27
2.45846475630437e-28
2.310382897722828e-29
1.2355824788368662e-30
3.3037131688337283e-13
3.3677907294766172e-12
9.218680969761331e-12
1.7600878312016655e-11
2.5664226638873e-11
4.0183829722874414e-11
4.5475948426371676e-11
5.655736817029777e-11
5.6243546201746743e-11
6.995345236686358e-11
6.552755416958029e-11
8.024587794687842e-11
8.827959459856026e-11
1.1949774877444712e-10
1.424550669238822e-10
1.8647853959596513e-10
2.443913103199408e-10
2.8836272989361944e-10
3.598958532576114e-10
3.8291015320126194e-10
4.613799347048009e-10
4.6361277459584655e-10
4.897409184115042e-10
4.858405274964934e-10
4.671873247570457e-10
4.949156993728092e-10
4.3582875542786503e-10
4.943863646910198e-10
5.003443685886604e-10
5.818834100981564e-10
7.219411332849233e-10
7.848364331013091e-10
1.0518327048572316e-09
1.210971963029147e-09
1.4153821932927864e-09
1.6952847550016826e-09
1.7577495519719894e-09
2.0179322224683825e-09
2.145956327021177e-09
2.0773878885331274e-09
2.2255124964608375e-09
2.089254423023438e-09
1.911562113030789e-09
1.960021599611964e-09
1.680622457735304e-09
1.4763204138394631e-09
1.4922295451046134e-09
1.2197864152826838e-09
1.0921078994734888e-09
1.2246030978095052e-09
1.1748110066631734e-09
1.1915323700750542e-09
1.328912963314386e-09
1.4862512714970186e-09
1.9483181196080178e-09
2.284950823913573e-09
2.226336409101579e-09
2.664518311369827e-09
3.5036129378404584e-09
3.7269255873296414e-09
3.749732172232611e-09
4.181021068327256e-09
4.469522936358224e-09
4.683706550538165e-09
5.259262600853385e-09
5.40151105586478e-09
4.704514256149673e-09
4.2904399704232435e-09
4.747638965036403e-09
5.423359345314163e-09
5.924244637906089e-09
6.203329702738371e-09
5.822631247004157e-09
4.684242906033278e-09
3.648702295998372e-09
3.385462327712992e-09
3.505490817186893e-09
3.5289948068403925e-09
3.5940839096001578e-09
3.704011150291016e-09
3.577229223087274e-09
3.4088436742664797e-09
3.448090383399183e-09
3.2196587210277253e-09
2.4210818268714753e-09
1.734384722189064e-09
1.784670494415106e-09
2.349797979358308e-09
3.0576964507160448e-09
3.76614617524846e-09
4.181519197145881e-09
4.01876624018884e-09
3.468482993543085e-09
3.0145947346779018e-09
2.911465292275482e-09
2.9683984941476655e-09
2.824861998929469e-09
2.4971802823753334e-09
2.4174910235234954e-09
2.8058052338237134e-09
3.515266028925099e-09
4.524629504560017e-09
5.751652099611418e-09
6.444272352586086e-09
5.811016565901194e-09
4.19379634253772e-09
2.6768647962003186e-09
1.7974350726315574e-09
1.4410280817031176e-09
1.46515726283714e-09
1.6188770912895892e-09
1.4211296186629655e-09
7.835688421679632e-10
2.287914718178721e-10
1.3935552832623272e-10
3.95384132213856e-10
8.686880220410927e-10
1.5540835543389827e-09
2.1917808082917647e-09
2.48854606414508e-09
2.6548713239630364e-09
3.0490819212388587e-09
3.468528223905075e-09
3.4668022833685784e-09
3.1240417919669662e-09
2.8172632283026597e-09
2.4975755859438756e-09
1.8933294780909088e-09
1.1870858189057142e-09
8.065734152930613e-10
7.434586171293841e-10
7.211842229157954e-10
8.444711051840761e-10
1.4259414931097096e-09
2.3090569573325208e-09
3.0317164650044856e-09
3.602014262593448e-09
4.437543064427277e-09
5.4882476929822415e-09
6.091989737904563e-09
5.9077462456090805e-09
5.404368475617111e-09
5.093676355896023e-09
4.763667985401965e-09
3.921813924597151e-09
2.670530517778458e-09
1.6206813804602526e-09
1.0707473312482757e-09
7.797189902616199e-10
5.738291771124436e-10
6.943476277472467e-10
1.338655192595846e-09
2.2205076429369226e-09
2.915972116172492e-09
3.45261102221772e-09
4.1859495500938915e-09
5.1196326214985e-09
5.704094301028721e-09
5.458172135584731e-09
4.56094062076991e-09
3.610289885755564e-09
2.9120296790910846e-09
2.260924694436496e-09
1.4327210891052723e-09
6.407759895319062e-10
3.3065745482618925e-10
6.255868586182485e-10
1.1786409249742137e-09
1.6039352977491782e-09
1.8999151097812373e-09
2.330110914818097e-09
2.950849120082029e-09
3.409591316299526e-09
3.2748372294573485e-09
2.5059371001845655e-09
1.524276502121049e-09
8.255344198389586e-10
5.712312098625707e-10
5.668521232942936e-10
5.770692866434115e-10
5.910017057862668e-10
7.672498172051248e-10
1.1679656975614516e-09
1.6025911288905051e-09
1.7551746435631848e-09
1.4632888234544609e-09
8.742132475981194e-10
3.380922995644773e-10
1.438708602600734e-10
3.247907929868819e-10
6.730511500576332e-10
9.188832543684999e-10
9.156122321806391e-10
7.021802069489709e-10
4.311119067552027e-10
2.449142161782731e-10
1.9503789115465016e-10
2.4146105146038007e-10
3.07020944829448e-10
3.3460456684889873e-10
3.1166547348638296e-10
2.5960461382212856e-10
2.0787186414964139e-10
1.7407091986596082e-10
1.5916537182979414e-10
1.5416289861909965e-10
1.4945871703108718e-10
1.4032412997894777e-10
1.2717122661204956e-10
1.128571588625276e-10
9.993302481293347e-11
8.939741143538011e-11
8.091159484003642e-11
7.363204787712157e-11
6.689122212441001e-11
6.043156825072998e-11
5.429728598938667e-11
4.8623402372920125e-11
4.349172184796905e-11
3.889576902210786e-11
3.477407340848182e-11
3.105584404460781e-11
2.768726769160313e-11
2.4634899977174004e-11
2.1877242455344685e-11
1.9395679464584526e-11
1.717001281684265e-11
1.5178295689465717e-11
1.3398532363993293e-11
1.1810221626303068e-11
1.039493591534996e-11
9.13615079746334e-12
8.018755007562816e-12
7.02865801924561e-12
6.152598888183248e-12
5.3781755711744135e-12
4.693987780559766e-12
4.089815161738758e-12
3.556741744008957e-12
3.087161891314697e-12
2.6746423433309025e-12
2.3136397319856744e-12
1.9991460626892218e-12
1.726339854499471e-12
1.490360008251992e-12
1.2862597321122163e-12
1.1091717187026405e-12
9.546178448728197e-13
8.188659344189893e-13
6.991889832442505e-13
5.939248254133502e-13
5.022789966478153e-13
4.2391485036177927e-13
3.5844059003085114e-13
3.049591114650024e-13
2.618277112755998e-13
2.267209210737365e-13
1.969840142148564e-13
1.7017029497266406e-13
1.4458025007984425e-13
1.196154687398026e-13
9.581006600873281e-14
7.451108629532276e-14
5.72953990739086e-14
4.530849501708772e-14
3.8742514471228443e-14
3.6634227287908463e-14
3.7059071420941984e-14
3.7666717680865106e-14
3.638468375132928e-14
3.2056176439807794e-14
2.479458433926051e-14
1.592947494624102e-14
7.554666406288133e-15
1.8239942262277964e-15
2.9146719180271758e-31
9.975243067191597e-08
6.180852706979631e-07
1.8259346479268797e-06
2.159100394266342e-06
1.2936433976590744e-06
5.521176118820833e-07
1.0593400496965102e-06
2.310358259915024e-06
2.793940134050571e-06
2.066482173584781e-06
1.3977079372529296e-06
1.885558827819019e-06
3.04616017792421e-06
3.6021027815745247e-06
3.032313482781031e-06
2.4596124523977586e-06
2.8448004255421214e-06
3.88989246964351e-06
4.522315623948349e-06
4.2663041551955995e-06
4.018983696243438e-06
4.464157948870371e-06
5.433333718646366e-06
5.93907061748209e-06
5.797573389529257e-06
5.5946574283364586e-06
6.087937456656577e-06
6.931852029517085e-06
7.5027513712691696e-06
7.671591878634425e-06
7.777830452195446e-06
8.440958322166231e-06
9.1388013187604e-06
9.61647225201315e-06
9.609539030347676e-06
9.912465783408973e-06
1.0461591560775214e-05
1.1426056075156532e-05
1.186899740116204e-05
1.199587158880646e-05
1.1905393658664355e-05
1.2248572461558998e-05
1.2591329698010038e-05
1.2933777491706016e-05
1.3044189115328489e-05
1.3578455903828853e-05
1.4260035372751446e-05
1.4904728761533277e-05
1.4842652417927921e-05
1.4598655811910767e-05
1.4174494582358592e-05
1.394112847327451e-05
1.3533281830630953e-05
1.3193499444403502e-05
1.2760461079092214e-05
1.2851230010264632e-05
1.2671025599123357e-05
1.2521107043620952e-05
1.2051977450879912e-05
1.1983266976618595e-05
1.180064524539116e-05
1.185979587273857e-05
1.13223005572028e-05
1.0943231242702982e-05
1.0365678199618123e-05
9.943038667032112e-06
9.190688323019096e-06
8.621979494185782e-06
8.2351212503799e-06
7.858976063148051e-06
7.228055129848928e-06
6.382409956213119e-06
5.833952104817651e-06
5.203572312675549e-06
4.942711174267976e-06
4.6537161419619525e-06
4.5891827278925675e-06
4.192864152768424e-06
3.8112958571064203e-06
3.363302812023468e-06
3.115956985950783e-06
2.9740766513889844e-06
2.8261906531620887e-06
2.8248480154395087e-06
2.5232054907022145e-06
2.2516457558660296e-06
1.805969618377741e-06
1.5038389106186265e-06
1.3111690163368198e-06
1.2129278386665332e-06
1.1779258683491868e-06
9.683385439913928e-07
7.747161337332363e-07
4.801809672337958e-07
3.5575700729485423e-07
3.7341613904266525e-07
4.423310377109745e-07
5.503219863873295e-07
4.856253829081235e-07
3.741154730602093e-07
2.2938950491775897e-07
1.949849316282462e-07
2.8655787806956446e-07
3.4649144911856295e-07
3.8287552534727553e-07
2.5230668031385486e-07
1.0330733610604118e-07
4.305022108096088e-08
4.704566328116352e-08
1.5456849101112156e-07
1.8472368529382962e-07
1.4807314342056347e-07
1.0109523004708206e-07
1.8562993941417167e-08
1.6473934419119123e-08
7.668725578831416e-08
1.4579638334416926e-07
2.0352480457111034e-07
1.4948307332217935e-07
4.244291936697884e-08
1.7042624275644723e-26
1.5520023934747476e-27
1.4585199067482678e-28
7.800099470910886e-30
2.0855986372127582e-12
2.126050112968417e-11
5.819654275319767e-11
1.1111245421541317e-10
1.6201550609203853e-10
2.5367620076291894e-10
2.8708477769418565e-10
3.570405902457744e-10
3.550594658669639e-10
4.4160863086114055e-10
4.136684109420033e-10
5.065836080044214e-10
5.572995982985057e-10
7.543764523660514e-10
8.993035359222306e-10
1.1772189901947998e-09
1.542816091173687e-09
1.8204029398272244e-09
2.271983864015567e-09
2.417270667518027e-09
2.9126419694520184e-09
2.926737647847499e-09
3.0916818132457064e-09
3.067059064353087e-09
2.9493033990609358e-09
3.124349649614146e-09
2.7513401192130996e-09
3.1210080166255932e-09
3.1586202552625633e-09
3.673367465934828e-09
4.557536828351242e-09
4.954588100300644e-09
6.6401068849462744e-09
7.644735928113368e-09
8.9351557553912e-09
1.0702150562202813e-08
1.109648411592665e-08
1.2738989367692242e-08
1.3547191788243024e-08
1.3114326601229929e-08
1.4049421340525243e-08
1.3189238758843681e-08
1.2067486292376739e-08
1.2373405825970534e-08
1.0609589054485844e-08
9.319852196127269e-09
9.420284832951935e-09
7.700380618400583e-09
6.8943598624673135e-09
7.730787817816663e-09
7.4164556947424836e-09
7.522015865864932e-09
8.389284794482535e-09
9.382544633813262e-09
1.2299523013814981e-08
1.442464911726772e-08
1.4054622612527081e-08
1.6820817894984253e-08
2.211793214197406e-08
2.3527680911451597e-08
2.3671656432213594e-08
2.639433690709732e-08
2.821561821104036e-08
2.956773636119041e-08
3.320115988445814e-08
3.4099159101569713e-08
2.9699093171691626e-08
2.7085086682984412e-08
2.997133482672645e-08
3.423708500606689e-08
3.739912005645961e-08
3.9160954093299204e-08
3.675764563432496e-08
2.957112231581936e-08
2.3033865675498822e-08
2.1372060031185785e-08
2.212978699257888e-08
2.2278165154620434e-08
2.2689065668907785e-08
2.3383024531741965e-08
2.2582663843369377e-08
2.1519663960510466e-08
2.1767424219646845e-08
2.0325359671693544e-08
1.5284029516661268e-08
1.0948984455200414e-08
1.1266433133902895e-08
1.4834022244143636e-08
1.9302909256117145e-08
2.3775276270170494e-08
2.6397481540823647e-08
2.5370039605385347e-08
2.1896160577047824e-08
1.903081275246573e-08
1.837976766005256e-08
1.8739180848088788e-08
1.783305037150433e-08
1.576443089227122e-08
1.526136116082549e-08
1.7712747060341648e-08
2.2191496854294467e-08
2.856350005692016e-08
3.630956190093874e-08
4.068199916134372e-08
3.6684323400093114e-08
2.6474985840953675e-08
1.6898759927542516e-08
1.1347014545097937e-08
9.097055494216229e-09
9.249380422920438e-09
1.0219797188387348e-08
8.971438634403241e-09
4.946585934894551e-09
1.4443359863401939e-09
8.797364816869258e-10
2.4960175571533362e-09
5.483934174501973e-09
9.810762549305523e-09
1.3836476816345682e-08
1.5709924000013462e-08
1.67599174996999e-08
1.9248526656842678e-08
2.1896446111464738e-08
2.1885550434246793e-08
1.9721740269062454e-08
1.7785080148746284e-08
1.5766926401238562e-08
1.1952385626428681e-08
7.4939452659516e-09
5.091811334036277e-09
4.693374392597466e-09
4.552758534493173e-09
5.3310553796024815e-09
9.001815480926245e-09
1.4576828548222289e-08
1.9138900396915968e-08
2.2739129135529077e-08
2.8013732714603716e-08
3.464671817502418e-08
3.845807685469595e-08
3.72949674780353e-08
3.411719768554129e-08
3.215583170620662e-08
3.007252431056434e-08
2.4757990051022772e-08
1.6858772308251035e-08
1.0231187472117102e-08
6.759512889670578e-09
4.922282233335087e-09
3.6225219582277333e-09
4.3833419918012605e-09
8.450786441491436e-09
1.4017826237816583e-08
1.8408218755221572e-08
2.179596252693156e-08
2.6425449883105636e-08
3.2319690822907015e-08
3.600933462682607e-08
3.445685441168843e-08
2.8792728233256546e-08
2.2791372255639554e-08
1.838333057339681e-08
1.4272974742604677e-08
9.04461434222748e-09
4.045149994054036e-09
2.0874049953107383e-09
3.949262642110728e-09
7.440633557655932e-09
1.0125471250714026e-08
1.1993960011905323e-08
1.4709739920353779e-08
1.862839353464854e-08
2.1524383744358397e-08
2.0673695668504315e-08
1.5819711742502235e-08
9.622593830327426e-09
5.211510119070539e-09
3.6061212700355096e-09
3.578476566902097e-09
3.64297642166589e-09
3.730930287187678e-09
4.843565683184407e-09
7.3732419936605195e-09
1.0116985657090829e-08
1.1080228995721268e-08
9.237585165792819e-09
5.518814329960796e-09
2.1343403715423747e-09
9.082412871785778e-10
2.0503693892766746e-09
4.2488996156715885e-09
5.800811284549558e-09
5.780161672828868e-09
4.432788222978598e-09
2.721563160194844e-09
1.5461171396902962e-09
1.2312532571966176e-09
1.5243176817420428e-09
1.9381902465767502e-09
2.112322689537792e-09
1.9675106571038504e-09
1.6388560420719294e-09
1.3122727501746595e-09
1.0988910195826097e-09
1.0047938958843296e-09
9.7321381983735e-10
9.435168267638755e-10
8.858511598798202e-10
8.028182937212914e-10
7.124551215397521e-10
6.308664515084976e-10
5.643562559209589e-10
5.10786207244082e-10
4.648312091873317e-10
4.2227710026477397e-10
3.8149799921294376e-10
3.4277293420055857e-10
3.0695431638034426e-10
2.7455856843704613e-10
2.455448119138248e-10
2.1952499022991351e-10
1.9605220764304734e-10
1.747867469564169e-10
1.5551747744010194e-10
1.381086817138765e-10
1.2244284110606712e-10
1.0839244662506254e-10
9.581895033683286e-11
8.458349563336996e-11
7.45566605520226e-11
6.56221138792783e-11
5.767553864031826e-11
5.0621539041840713e-11
4.437116310417483e-11
3.8840695910176696e-11
3.3951844693260745e-11
2.963264066197599e-11
2.5818563815531168e-11
2.2453328588575608e-11
1.948892141763636e-11
1.688472982129888e-11
1.4605759112356727e-11
1.2620394358889736e-11
1.089819806960177e-11
9.408482647614454e-12
8.12001952742738e-12
7.00208192037989e-12
6.026399916033191e-12
5.169412686898269e-12
4.413904949027895e-12
3.7493836274115405e-12
3.1708333543952327e-12
2.676128916242709e-12
2.2627969435796493e-12
1.925174114015322e-12
1.652890217505469e-12
1.431264821897146e-12
1.2435389230362071e-12
1.0742667936102028e-12
9.12719588912892e-13
7.551196058626513e-13
6.048386554381721e-13
4.70380484301022e-13
3.6169970006593806e-13
2.8602766230809855e-13
2.4457733239569935e-13
2.3126794186547507e-13
2.3394993724340724e-13
2.3778594281301436e-13
2.2969260032334436e-13
2.0236719860494536e-13
1.5652554766573046e-13
1.005610642982157e-13
4.7691797551279844e-14
1.1514679628944772e-14
1.2510479180295563e-15
4.032509467884419e-07
2.4619510415154137e-06
7.272452662512598e-06
8.642039087250065e-06
5.201337089301171e-06
2.21866630282202e-06
4.242010391832469e-06
9.24575897114838e-06
1.1220692792012183e-05
8.359330948181551e-06
5.691811892346218e-06
7.60807945289667e-06
1.2312260557726765e-05
1.45299178738846e-05
1.2251018486529231e-05
1.0027280779737733e-05
1.1471166412493617e-05
1.5653464510817798e-05
1.819079325027727e-05
1.7092384741983622e-05
1.6128849904604077e-05
1.7902398875837385e-05
2.1832354216651365e-05
2.385484308412938e-05
2.328180876124902e-05
2.2531901021052465e-05
2.4596370051442488e-05
2.79991580479474e-05
3.0143862315296624e-05
3.0920404998549964e-05
3.1299422393751255e-05
3.394397245626234e-05
3.6702394704315925e-05
3.8647226328289055e-05
3.85779243858087e-05
3.968182131358644e-05
4.185471746482895e-05
4.568198647200388e-05
4.734411007895996e-05
4.777754180015285e-05
4.75037731355297e-05
4.8771097807678695e-05
5.004143811978537e-05
5.134743898405424e-05
5.164462066465995e-05
5.365751358338729e-05
5.6497292472151916e-05
5.873896441258046e-05
5.846884773032832e-05
5.7567371203174304e-05
5.59571114625488e-05
5.5008942479276086e-05
5.3273995967016e-05
5.18706466957524e-05
5.032367027794764e-05
5.052352917857404e-05
4.9825939890919385e-05
4.926893622218345e-05
4.745163021350786e-05
4.736595491606013e-05
4.6588214359842934e-05
4.687922668468517e-05
4.477685437548356e-05
4.324689254667603e-05
4.1052178461124424e-05
3.963796913098659e-05
3.656335296865958e-05
3.4649752578189925e-05
3.322208534696253e-05
3.170664777038084e-05
2.9158275811541572e-05
2.6034675858571482e-05
2.3859611718966205e-05
2.1353550139835116e-05
2.0345508835890383e-05
1.91262202956606e-05
1.8817067468562976e-05
1.7023203856197903e-05
1.5462130121552925e-05
1.3549083032510074e-05
1.2482207693540895e-05
1.1860308866861513e-05
1.1246489916814342e-05
1.1099596007043064e-05
9.855979304948403e-06
8.80855988085358e-06
7.011924006628749e-06
5.8958138431330205e-06
5.117866347392584e-06
4.76057313231412e-06
4.660389197986989e-06
3.849304744191399e-06
3.1528176951482084e-06
2.0040079486999226e-06
1.546579238834348e-06
1.569472620536378e-06
1.8225473465799856e-06
2.2293094677655053e-06
1.9307493299686344e-06
1.493687542029852e-06
8.821415052553769e-07
7.564798327470405e-07
1.0868983205921194e-06
1.3260276792314969e-06
1.5182987263080718e-06
9.854631040969943e-07
3.9914548060832655e-07
1.6185345954384678e-07
1.8364776765454038e-07
6.180360814604187e-07
7.257076703192498e-07
5.851026089585302e-07
4.0300235130503144e-07
7.543211719507503e-08
7.028148070383996e-08
3.030826520105536e-07
5.841764789645101e-07
8.060463947823079e-07
5.847656073002092e-07
1.6763655466860207e-07
4.991220058696028e-26
4.5458151158908664e-27
4.210927152429361e-28
2.533537158317741e-29
5.700532443796254e-12
5.769603003660355e-11
1.6654239312026447e-10
3.1135241456832636e-10
4.707813922358187e-10
7.31967141585989e-10
8.354199071100308e-10
1.0008597481724056e-09
9.8845792431075e-10
1.190299448532986e-09
1.0683384681887897e-09
1.2641803915120425e-09
1.3679162233080025e-09
1.898105910773179e-09
2.2380294338439142e-09
3.0910075986365864e-09
4.0615055568437745e-09
4.987219664125163e-09
6.1694623939873696e-09
6.667445614015173e-09
8.08642528406362e-09
8.006476362237657e-09
8.431135570960615e-09
8.09816269886095e-09
7.638610601498959e-09
7.791988139673942e-09
6.543819270470154e-09
7.143364702079265e-09
7.085385092036688e-09
8.412887934822904e-09
1.0406305947641212e-08
1.1910928769991398e-08
1.6333577102458412e-08
1.9201620761938568e-08
2.345983961399566e-08
2.7832080732495438e-08
2.9441761802803967e-08
3.430002165033203e-08
3.612126525231911e-08
3.552748905647894e-08
3.743439676905722e-08
3.4619995826137204e-08
3.198874668903045e-08
3.162588473580722e-08
2.641386905715554e-08
2.2924922334662105e-08
2.173123797835714e-08
1.69815796767537e-08
1.4765332337578452e-08
1.5611063039146306e-08
1.5155286167348777e-08
1.5754900265228504e-08
1.7146609910805028e-08
2.120007389064141e-08
2.9744048945085283e-08
3.383105120045564e-08
3.5102981108474114e-08
4.561637952873036e-08
5.73929690069174e-08
6.069073322490421e-08
6.55358421462453e-08
7.310151404042348e-08
7.606997492893078e-08
8.273460540485917e-08
9.38610383756962e-08
9.293750922789772e-08
8.232136831596126e-08
8.026878282706727e-08
8.749398087617164e-08
9.634482901633589e-08
1.0757379432340209e-07
1.1483404466207745e-07
1.05449883035429e-07
8.615371302669858e-08
7.712170846808712e-08
8.068383509606908e-08
8.398268611802898e-08
8.49013843791706e-08
8.754714138550398e-08
8.577665480668389e-08
7.748564758136338e-08
7.477432038425658e-08
7.897357423618976e-08
7.357582766865988e-08
5.577002361483981e-08
4.330851855452654e-08
4.477289769764126e-08
5.315461605146072e-08
6.551584205912212e-08
8.250482752400098e-08
9.555097771996173e-08
9.497790439304798e-08
8.504142713269618e-08
7.846543114951623e-08
7.93197633233069e-08
7.918992744663863e-08
7.150667499450757e-08
6.26412956300452e-08
6.168093652769688e-08
6.70423477527594e-08
7.476612412231969e-08
8.900032683416834e-08
1.0840586871276765e-07
1.1547366079030565e-07
9.770207205765431e-08
6.681157373551797e-08
4.184562585970883e-08
2.7433542854286238e-08
2.0055913727727096e-08
1.889306609136535e-08
2.0171123698623866e-08
1.6092564654261285e-08
6.698143244230938e-09
4.952210952340072e-10
1.4585573445465876e-09
6.847154477176778e-09
1.5473634736781355e-08
2.6504964326704876e-08
3.449102762760098e-08
3.648363824142862e-08
3.8430432840336966e-08
4.5014276559484284e-08
5.036919811194424e-08
4.780660291814405e-08
4.067874085219167e-08
3.479323261858057e-08
2.8248213429543584e-08
1.772169061553423e-08
7.386948114772439e-09
2.8983786263803945e-09
2.9360812763864122e-09
4.4847905225603656e-09
1.0159992800324689e-08
2.241275556374874e-08
3.632127754501727e-08
4.6507991676240105e-08
5.632983364591833e-08
7.128812740594288e-08
8.69013026369023e-08
9.280152942840238e-08
8.757574054272964e-08
8.006193714704077e-08
7.507069031554492e-08
6.681853571866994e-08
4.988501605220001e-08
2.9233850090043673e-08
1.3971878891093945e-08
6.184993706302842e-09
2.1086520628427222e-09
1.2853058696703356e-09
7.501205355504345e-09
2.0809049561030764e-08
3.513477947938537e-08
4.62145566156214e-08
5.709463638670063e-08
7.179793617641289e-08
8.639395778227675e-08
9.133362666801335e-08
8.256535132537474e-08
6.625128016529631e-08
5.1046483082941676e-08
3.8895404211653895e-08
2.6191821493533388e-08
1.2139524416590881e-08
1.962418216316425e-09
8.877694438230548e-10
7.688425790008291e-09
1.6492806802407184e-08
2.395159311089512e-08
3.2008461116821284e-08
4.293050066301307e-08
5.3578833376774174e-08
5.673332402774456e-08
4.827300498129342e-08
3.1870152649370645e-08
1.594220272072926e-08
6.461119905783023e-09
3.2729878577853565e-09
2.9115694490690586e-09
3.679455817523394e-09
7.093283031708575e-09
1.4641458593481775e-08
2.4137561811798527e-08
3.010477800398884e-08
2.8080545950122825e-08
1.864933121508201e-08
7.369586108354473e-09
6.9604596691212e-10
1.4482412215366338e-09
7.37067711045452e-09
1.3426073113870774e-08
1.5551912223378534e-08
1.299141399682242e-08
7.952340223501219e-09
3.4869202360951215e-09
1.4435175131489422e-09
1.7650584553461647e-09
3.1514022016581795e-09
4.230653652396102e-09
4.355001323495403e-09
3.681463166581859e-09
2.7594424516625674e-09
2.0598957867798545e-09
1.743877797774609e-09
1.7048695041850704e-09
1.7437426927391641e-09
1.71835563103022e-09
1.5940100220204853e-09
1.4113510402490235e-09
1.2280326720632664e-09
1.079110711833962e-09
9.69118174336261e-10
8.846573280458826e-10
8.103402865224151e-10
7.376387513135942e-10
6.654537579937081e-10
5.964157398127117e-10
5.331883063981673e-10
4.767805212687916e-10
4.2669447938363014e-10
3.818201616474334e-10
3.4117665877829297e-10
3.04182131986722e-10
2.705689626752729e-10
2.4019013654452085e-10
2.1288141512475465e-10
1.8842120290303692e-10
1.66552474053463e-10
1.470190572999061e-10
1.2958851831862005e-10
1.1405689709891263e-10
1.0024329495728591e-10
8.798214017920697e-11
7.711839499120535e-11
6.750583272907148e-11
5.900793765962166e-11
5.1499632704676454e-11
4.4869158070081896e-11
3.901914807534086e-11
3.386647383492668e-11
2.9340588214393436e-11
2.5380426182983852e-11
2.1930621809115888e-11
1.893783430536998e-11
1.634844412642295e-11
1.4108148876758591e-11
1.2163815042012479e-11
1.0466783509354986e-11
8.976639413132702e-12
7.663852510612676e-12
6.510288542010863e-12
5.5069695170810115e-12
4.649643271738136e-12
3.933311905591581e-12
3.3475276463700017e-12
2.8739605930919432e-12
2.487217344144862e-12
2.1586985754716105e-12
1.8623433819573376e-12
1.5802888262654798e-12
1.306492012727054e-12
1.0468825405465905e-12
8.158152066896656e-13
6.297920590197405e-13
5.004635362961627e-13
4.2920288717665637e-13
4.051420771091299e-13
4.0741166983063956e-13
4.1094836123696507e-13
3.9398261722414697e-13
3.4471765335239094e-13
2.649174410644861e-13
1.6913335658927557e-13
7.974763848988678e-14
1.943284458986984e-14
4.112957287779535e-15
8.210615953969717e-07
5.027228653914423e-06
1.4845068663999258e-05
1.764771969571931e-05
1.0619926690370733e-05
4.496359989886611e-06
8.555872327318197e-06
1.8694540633083516e-05
2.271727981635295e-05
1.6943618678184255e-05
1.1508263894456147e-05
1.5365728964833313e-05
2.4912434026517114e-05
2.9467803475265874e-05
2.489682530003504e-05
2.0400753659552068e-05
2.3375372526029412e-05
3.1814637474075714e-05
3.689198921686243e-05
3.46008161106208e-05
3.258528944507517e-05
3.6154484674098856e-05
4.414882255171718e-05
4.827908334268669e-05
4.715735248274819e-05
4.568667353677371e-05
4.987822205512986e-05
5.6946709127369096e-05
6.136692960722325e-05
6.28911329165685e-05
6.353219336742846e-05
6.878161902041551e-05
7.426469732716348e-05
7.817467638568757e-05
7.795981082460173e-05
7.997772728555701e-05
8.411293934890112e-05
9.165511581890761e-05
9.490504442013669e-05
9.560347760715062e-05
9.498815395644244e-05
9.741066742223451e-05
9.986750162810617e-05
0.00010229904307256004
0.00010271277347407656
0.00010648083656314245
0.00011208110630368536
0.00011639648247326696
0.00011574252119173798
0.00011374659350537441
0.00011048141029474913
0.0001085722590364771
0.00010531702056726742
0.00010258014144366304
9.954200195589933e-05
9.990695481595684e-05
9.856287219091194e-05
9.740850936572837e-05
9.373851459215058e-05
9.356634415062047e-05
9.213163483901343e-05
9.28026650970471e-05
8.86386100815483e-05
8.56874650468668e-05
8.142326347071254e-05
7.895072983418981e-05
7.308537350862203e-05
6.968482417206239e-05
6.712681226625001e-05
6.440399204921873e-05
5.93735197969299e-05
5.32902653144152e-05
4.901906892699754e-05
4.407260811242971e-05
4.19788055881809e-05
3.936457236375601e-05
3.861651850683492e-05
3.479220448098261e-05
3.14789076642567e-05
2.7388741009765114e-05
2.506300660281469e-05
2.36129332980621e-05
2.2292310301528558e-05
2.1885133436646906e-05
1.9311053129318418e-05
1.7220991855991705e-05
1.3668794286032014e-05
1.1551269076305714e-05
1.0065093468816897e-05
9.482092461466453e-06
9.340769240862596e-06
7.800402557963787e-06
6.5057792157608974e-06
4.225541389732155e-06
3.325326805575239e-06
3.3105475216910495e-06
3.7741643153969887e-06
4.535474908768206e-06
3.873512860506288e-06
2.954609239387748e-06
1.6944371334123311e-06
1.4306774099260728e-06
2.0671668957823414e-06
2.5591697168897575e-06
2.976694647663119e-06
1.9229003581490203e-06
7.815489183957691e-07
3.2232278540664425e-07
3.8564372340950714e-07
1.2788833713297113e-06
1.4928666275421287e-06
1.2123100005780514e-06
8.329944713994783e-07
1.6083504534789546e-07
1.3886944799521734e-07
5.928490639099146e-07
1.1569646083834654e-06
1.597174637975566e-06
1.1578117876893673e-06
3.356301109539026e-07
1.0012045519591776e-25
9.118828410105741e-27
8.293728357690654e-28
5.946593925563505e-29
9.352328392770445e-12
6.631722768814054e-11
1.978844060069798e-10
3.7972300671787236e-10
5.739525741530633e-10
9.377871303921047e-10
1.0406186844663617e-09