# vtk DataFile Version 4.1 
COMMENT
ASCII
DATASET STRUCTURED_POINTS 
DIMENSIONS 400 400 1 
ORIGIN 0 0 0
SPACING 0.002506265664160401 0.002506265664160401 0 
POINT_DATA 160000
SCALARS U double 1
LOOKUP_TABLE default
1.2511026177944452e-06
3.3605176267348246e-10
1.4531205108748327e-09
2.5888741830069558e-09
4.109112821690589e-09
6.029524946567735e-09
7.61851127610704e-09
8.278386859521825e-09
7.449879201787321e-09
5.222686952882656e-09
3.520459034624112e-09
2.3305245586527027e-09
1.7622857859169471e-09
1.4834681397190361e-09
1.2044221441171164e-09
8.648658643197111e-10
6.245905015024565e-10
1.645423850775467e-10
1.4804650172212178e-10
1.2478220485940409e-09
4.043740037539076e-09
7.539491515007654e-09
9.561169805662036e-09
1.0146533889054137e-08
7.62769722237799e-09
3.9528215918893875e-09
1.0453883418059918e-09
2.031197927747869e-10
1.6225186687784254e-09
4.187285823249961e-09
5.687264914093367e-09
5.888281085837744e-09
5.643915173027344e-09
5.276223507935394e-09
5.637650051872704e-09
5.577024558790183e-09
5.061655173765829e-09
4.507721965497019e-09
4.29269587020349e-09
4.490587968640579e-09
4.4476147592323985e-09
3.7438269584517085e-09
2.9684798610054855e-09
3.1620059698105446e-09
4.200812148333852e-09
5.031181572994387e-09
4.187255720019983e-09
2.384996456351963e-09
4.4982509550196794e-10
1.031699330614092e-10
1.4661378485339762e-09
3.7094520016911125e-09
5.269226393466835e-09
5.813028386804718e-09
5.054139038456914e-09
4.041969192022273e-09
3.5953437241601628e-09
3.795921061982614e-09
3.869591726502565e-09
3.9949476194179766e-09
3.56477186406738e-09
4.363064254676211e-09
6.175573633094425e-09
8.699450387214954e-09
1.0005364798317971e-08
1.009546117242294e-08
8.599101010975686e-09
6.916135607174389e-09
6.152164049580836e-09
5.50213346921962e-09
4.757305799577233e-09
3.052943184412578e-09
1.818769612451211e-09
1.2996987474520525e-09
2.04719633324814e-09
3.4836114494828014e-09
4.005543523742202e-09
4.021164528051721e-09
3.69040463953411e-09
4.367598846715989e-09
6.974623468243505e-09
1.0109276356444014e-08
1.2499637422543183e-08
1.2298183478512297e-08
9.584322200084186e-09
5.6172324655633184e-09
3.3779475381644255e-09
3.372362331660856e-09
5.665686302729452e-09
7.014577328968683e-09
6.8704046984532744e-09
4.638126925695276e-09
2.168752918713273e-09
7.33557075472958e-10
3.1649950016782077e-10
3.890842447597481e-10
3.51538435316321e-10
2.1433776041086563e-10
2.427599462447516e-10
4.054782129478447e-10
6.088880296529172e-10
9.166206856066049e-10
2.644435713755496e-09
5.753213189962411e-09
9.187810303205133e-09
1.1263203067013622e-08
8.949321147315445e-09
4.53323049037093e-09
7.261913287282607e-10
1.066803465946829e-09
5.152953989505428e-09
9.70254448709328e-09
1.0166614818298778e-08
7.232219342222436e-09
2.902610945623909e-09
1.5814770148429507e-09
2.980436384850404e-09
4.53871021776693e-09
4.159205564692388e-09
1.6800440293583902e-09
5.151367509438328e-28
4.8319340433630356e-29
7.361735029289184e-30
4.429014369416022e-30
2.2162797578608056e-11
1.0013564641591605e-10
2.3984418857162413e-10
4.462421171066617e-10
6.81886049374539e-10
8.279360277831209e-10
8.189765240313218e-10
6.230524507216516e-10
3.1609424863412463e-10
1.0620082669296274e-10
3.612958608821701e-11
5.828554025613558e-11
8.403845438746567e-11
5.6367467554153696e-11
4.961211783799609e-11
2.0568178269811685e-10
6.100975097538401e-10
1.196850427070843e-09
1.580889797062929e-09
1.4435521835230253e-09
9.859231068460896e-10
5.53604138781593e-10
4.5471202168637573e-10
5.423133587092004e-10
5.347073762334727e-10
3.9813841867192516e-10
3.305175816696318e-10
3.636279069489799e-10
3.3119696913408086e-10
3.164348965907791e-10
6.792707437660908e-10
1.758456755489144e-09
2.9138924569542237e-09
3.3708360826450682e-09
2.882772530259804e-09
1.7943328763431747e-09
1.0830099542269342e-09
1.0566942475432772e-09
1.0746124972052798e-09
8.588317117746328e-10
9.72687233124144e-10
1.8939840796518873e-09
3.207861991486691e-09
3.48993239680175e-09
2.5472350391795777e-09
1.4898314217987044e-09
1.1003238672087467e-09
1.5701831531386872e-09
1.7673198662104502e-09
1.0591511049194703e-09
4.5201344576537194e-10
1.2789770446829018e-09
3.4529236932853048e-09
5.030055773452147e-09
4.3908350964606445e-09
2.5447236424400574e-09
1.303148093653629e-09
1.4865974870804292e-09
2.4581335897159823e-09
2.985799772892248e-09
3.039069414544481e-09
3.1173856621169783e-09
2.776722631819919e-09
2.11311654881145e-09
1.0340202061736064e-09
1.23386120415484e-10
1.6675246973734569e-10
7.550995288696246e-10
9.192321983957718e-10
5.997325400039759e-10
4.3273663086895936e-10
1.2218589272415495e-09
2.353320873985025e-09
2.5063440549037234e-09
1.326724947183647e-09
2.5932283355360124e-10
7.663259693091305e-10
2.756512281990086e-09
4.561531832644772e-09
4.479612171663789e-09
2.8236326553231534e-09
9.254439665156242e-10
2.614947942086375e-10
8.957158560150573e-10
1.951049517192259e-09
2.4315766921573424e-09
2.0122051181508677e-09
1.0416357216749439e-09
3.0792323284655423e-10
2.341132116543085e-11
1.033347475289671e-10
3.0758311528229783e-10
5.223548801710671e-10
7.002303754312702e-10
8.790916832162627e-10
9.903605009439697e-10
8.717050244714726e-10
5.444911421724131e-10
2.5098445442349455e-10
1.6815023867211008e-10
3.8214142202312724e-10
7.016152991120376e-10
8.583610253986988e-10
8.13857839291399e-10
5.458052060671227e-10
2.9822318637912753e-10
2.357609683844208e-10
3.42578916303728e-10
5.141435335432278e-10
7.203965264731728e-10
8.036469665890264e-10
6.824155048438583e-10
5.908443043714303e-10
5.939073853495889e-10
7.416259906148855e-10
9.632550328917777e-10
9.737670590814988e-10
7.237154642988482e-10
4.2588847480813183e-10
3.295842045646211e-10
4.333179538370888e-10
5.67569986872127e-10
6.932470631707916e-10
5.782152689926981e-10
3.48883562544736e-10
1.759312367997722e-10
1.2772170736942603e-10
2.1634623533411044e-10
3.6114658673549976e-10
4.1542191437547e-10
3.6358964301346424e-10
1.9371926298359871e-10
6.942341224234536e-11
1.6956535765429472e-11
6.502994570816922e-13
1.662946640701123e-11
5.913631000081208e-11
1.2505264237677013e-10
1.5363328585458999e-10
1.6562703271927934e-10
1.9946162884461852e-10
2.646141881825162e-10
2.7672783913172576e-10
3.2512196839814866e-10
3.1748705994824185e-10
2.2996424090455149e-10
1.458249034143075e-10
9.044999631224969e-11
4.988552094100896e-11
5.753925922334815e-11
7.236710295667594e-11
7.548345597280186e-11
7.619812174303557e-11
6.243671843759736e-11
4.656693266986547e-11
9.494888072748965e-11
1.8849940220321488e-10
2.833228911133869e-10
3.0241696034858097e-10
2.6935477017374676e-10
1.84724682455423e-10
1.1047658549533471e-10
6.62025247406815e-11
4.064663055121795e-11
1.665468517709114e-11
5.01170373749993e-12
8.249371623433574e-12
4.001671094260119e-11
8.622316871805201e-11
1.3533044405251567e-10
1.802457993486193e-10
1.3877545436519449e-10
8.594349088853671e-11
9.527743484889344e-11
1.625002065332875e-10
2.2213054502737023e-10
2.1266052734566016e-10
1.1336146654532262e-10
1.0311749827541796e-13
1.5759589147256202e-10
5.871298388587341e-10
1.1312414135492266e-09
1.2023705383471006e-09
8.210704125681386e-10
2.7380619429209807e-10
4.319977889067603e-13
2.3156364376266098e-10
6.990242327422168e-10
8.85713182618802e-10
6.858946747046106e-10
3.6920360399955184e-10
1.557440766113622e-10
1.5241037309840874e-10
2.406277266766624e-10
3.218319943744867e-10
3.5320322642339557e-10
2.932760243518077e-10
1.6152656820173844e-10
4.745873042591901e-11
1.2045098993494123e-10
4.2440452937720245e-10
9.320903497471327e-10
1.2970375594940148e-09
1.1870943881652272e-09
7.457200069010846e-10
3.051193446629868e-10
1.3221006861148346e-10
2.357152062940872e-10
3.9728172859592833e-10
4.1143653709948743e-10
2.96564527685572e-10
1.6537917080800023e-10
1.6466917695035763e-10
2.3604724359635195e-10
2.979489162804424e-10
3.7254348725117266e-10
4.4126155607617856e-10
4.375909518276e-10
3.3311250293980256e-10
1.2366170863357097e-10
1.0320436462292466e-11
2.0158644541448863e-10
6.460215060929261e-10
1.0855623819880794e-09
1.34173348586701e-09
1.2226676590156362e-09
8.93564065009083e-10
4.350762261033404e-10
9.797283331610216e-11
3.766466741548043e-12
9.20377672483467e-11
2.431690587236412e-10
3.6199361438568913e-10
4.310053235572325e-10
4.118759292237429e-10
4.5025786172743874e-10
5.43790888280689e-10
6.03144338080282e-10
5.710008324521582e-10
4.5399737846020385e-10
2.653310776461772e-10
1.1505378925712897e-10
6.435550269365975e-11
2.337124206370499e-10
5.131096654706471e-10
8.374083527123995e-10
1.0539476820986067e-09
9.721170935944309e-10
8.469817036620365e-10
6.13307655745512e-10
3.4768791125058874e-10
1.7282631026382834e-10
6.185675945400139e-11
3.7079425681411866e-11
7.461170232939143e-11
2.627394999965038e-10
6.435006860119441e-10
1.0214357625328842e-09
1.3753584272692002e-09
1.3176030403668345e-09
8.825555057723301e-10
4.51388412875221e-10
8.102031171358378e-11
6.807096517534758e-12
1.1912340394776468e-10
3.2309074495444016e-10
4.411190729450807e-10
5.129505431573786e-10
5.030243182262672e-10
5.134740035358222e-10
6.162363199845846e-10
6.424565787161993e-10
5.908631638957145e-10
3.959740580128238e-10
1.0393846238729183e-10
7.0725632674984896e-31
4.2571296825825895e-10
2.121458681330316e-09
9.173393700689591e-09
1.6343284637814582e-08
2.594038786998181e-08
3.806374333653567e-08
4.809484335665869e-08
5.226056703534502e-08
4.70302871848052e-08
3.2970261747529814e-08
2.2224279741474484e-08
1.4712351209450796e-08
1.1125120873569337e-08
9.364975021844216e-09
7.603387624859356e-09
5.459805303357451e-09
3.942972746660737e-09
1.0387384029546771e-09
9.34601663209077e-10
7.877366560095405e-09
2.5527696505539522e-08
4.759600009261125e-08
6.035863798638416e-08
6.405397856895309e-08
4.815283324877445e-08
2.4953738124002922e-08
6.5994243132140735e-09
1.282273434020851e-09
1.0242786075920535e-08
2.6433885632006384e-08
3.5903092514803084e-08
3.717208601521581e-08
3.562943025579183e-08
3.330823226903994e-08
3.558987921889991e-08
3.520715699305398e-08
3.1953685422919406e-08
2.845676457890994e-08
2.7099327935983475e-08
2.834859949717432e-08
2.8077314242074523e-08
2.3634377451913236e-08
1.873969450832233e-08
1.9961404045931502e-08
2.6519275869353843e-08
3.17613088545192e-08
2.6433695593549026e-08
1.505622644862016e-08
2.8396975107078944e-09
6.513007055941419e-10
9.255570755096622e-09
2.3417372042210987e-08
3.326406023698304e-08
3.669702380936076e-08
3.1906236868047104e-08
2.5516517348004285e-08
2.2697018742904263e-08
2.3963241931904482e-08
2.442831692381006e-08
2.521967521089545e-08
2.2504021873962782e-08
2.7543555988659667e-08
3.89857330070079e-08
5.491869585785052e-08
6.316279326257297e-08
6.37315619947492e-08
5.428520102450924e-08
4.3660821203172356e-08
3.883795082078712e-08
3.473437758889377e-08
3.0032360514836164e-08
1.9272902396507364e-08
1.1481697203366174e-08
8.204858587738837e-09
1.2923730555690261e-08
2.199166489439795e-08
2.5286566016753283e-08
2.5385179739055718e-08
2.329712809085377e-08
2.757218238113131e-08
4.4030048787727743e-08
6.381877576753974e-08
7.890886842126364e-08
7.763711131142872e-08
6.050479656549621e-08
3.5460985189648984e-08
2.132461997195401e-08
2.1289361163222404e-08
3.576686905909246e-08
4.428227321890995e-08
4.337212688852358e-08
2.927999708541499e-08
1.369110422293818e-08
4.630867023677672e-09
1.9980273483050295e-09
2.456247044347228e-09
2.2192243822500067e-09
1.3530912587485412e-09
1.5325174649972095e-09
2.5597404045885266e-09
3.843844728528845e-09
5.786527930985682e-09
1.6694038613382975e-08
3.63194168966427e-08
5.8001659551148417e-08
7.110339114429464e-08
5.6496103126923045e-08
2.8617797156484222e-08
4.5843678556575304e-09
6.734615691646116e-09
3.2530045039976804e-08
6.125112116473912e-08
6.418074731831572e-08
4.5656223870934957e-08
1.832387112071573e-08
9.983694523045196e-09
1.8815174759065667e-08
2.8652390086939587e-08
2.6256617975925542e-08
1.0605937498273286e-08
3.2520029761722245e-27
3.0503480601790285e-28
4.647384249168053e-29
2.7959891979092917e-29
1.399113605346212e-10
6.321455799238724e-10
1.514110599997897e-09
2.817078552957846e-09
4.304673386073564e-09
5.226671212057413e-09
5.17011082724213e-09
3.933263197288618e-09
1.9954690389022095e-09
6.70434411531865e-10
2.2808219617699745e-10
3.6795035499500914e-10
5.305257357007134e-10
3.558417680539081e-10
3.131959709101821e-10
1.2984470012150517e-09
3.8514800464917285e-09
7.555588188449315e-09
9.979987480274917e-09
9.11298987788321e-09
6.22402667226908e-09
3.4948434636830978e-09
2.870548150789214e-09
3.4235659818659824e-09
3.3755502314803592e-09
2.513405071716141e-09
2.0865219910976285e-09
2.295543918096991e-09
2.0908108911854493e-09
1.9976195128624486e-09
4.288163242686024e-09
1.1100948615767387e-08
1.839509008995969e-08
2.1279726117125186e-08
1.8198633335431716e-08
1.1327430713146503e-08
6.8369255113660966e-09
6.670797281728956e-09
6.783913267186933e-09
5.4217123464885825e-09
6.140470023171257e-09
1.1956518055770232e-08
2.0250888185226592e-08
2.2031568355868693e-08
1.6080421195430013e-08
9.405145738112061e-09
6.9462263842758284e-09
9.912397587217086e-09
1.115690048173506e-08
6.686307158445718e-09
2.8535123308628505e-09
8.074044703943573e-09
2.179793638579618e-08
3.175420180293487e-08
2.7718870329887152e-08
1.6064567017570818e-08
8.226633939803743e-09
9.384730255603178e-09
1.5517933315646674e-08
1.8849033251674644e-08
1.918531877755741e-08
1.967972083627633e-08
1.7529151717749818e-08
1.3339877795833827e-08
6.527658494055737e-09
7.78923324873104e-10
1.052690430019511e-09
4.76686221802491e-09
5.803014130712501e-09
3.786047105796398e-09
2.731819869008019e-09
7.713464163781558e-09
1.4856261899516384e-08
1.5822280803931935e-08
8.37547208367121e-09
1.6370771935036639e-09
4.837733530650542e-09
1.7401565950134366e-08
2.8796460490318537e-08
2.8279310469806375e-08
1.782528965736551e-08
5.84222835562664e-09
1.6507885478214555e-09
5.654557987230887e-09
1.231676603337588e-08
1.535028247392287e-08
1.2702834773302924e-08
6.575734425408061e-09
1.943886293911013e-09
1.477931558302003e-10
6.523411616245696e-10
1.9417391682610105e-09
3.2975702506607054e-09
4.420479146045185e-09
5.549611370009285e-09
6.2520394645738715e-09
5.502980186778789e-09
3.437314094946345e-09
1.5844379017080842e-09
1.0615143951657101e-09
2.4124177501624123e-09
4.429222020482653e-09
5.418740953955287e-09
5.137797120293795e-09
3.445609639165715e-09
1.8826509424761085e-09
1.4883336695482194e-09
2.162663901094973e-09
3.245732901406961e-09
4.547785891459971e-09
5.0733369777072054e-09
4.3080157815808174e-09
3.72993662896282e-09
3.749273530162311e-09
4.68180521825989e-09
6.080925556248044e-09
6.147286848452372e-09
4.568737989455411e-09
2.688588195379026e-09
2.0806296816908063e-09
2.735489698464003e-09
3.5830083625608674e-09
4.376394245845368e-09
3.6502108851431954e-09
2.2024644556116256e-09
1.1106350005629883e-09
8.062934196136563e-10
1.3657705452020746e-09
2.2798796101160724e-09
2.622513923615384e-09
2.2953023619821347e-09
1.2229288991909674e-09
4.382625444884135e-10
1.0704478892976481e-10
4.105270621748801e-12
1.0498003520166818e-10
3.7332117300916964e-10
7.894438990080876e-10
9.698704313424529e-10
1.045585667011357e-09
1.2591798380651426e-09
1.6704809469141637e-09
1.7469531241893527e-09
2.05246006407536e-09
2.004261707121777e-09
1.4517395516134084e-09
9.205769517210425e-10
5.710011111870261e-10
3.1492193533237417e-10
3.632391629955274e-10
4.568457477764613e-10
4.765189496295158e-10
4.810305578723956e-10
3.941562969628475e-10
2.939720440371487e-10
5.994020852604334e-10
1.189976478766854e-09
1.7885869789533096e-09
1.909125787078184e-09
1.7004077318232671e-09
1.166147078454133e-09
6.974268175778945e-10
4.179294276565515e-10
2.565978126812894e-10
1.051392385883515e-10
3.163834737122119e-11
5.207739696654204e-11
2.526211978538332e-10
5.443176026023386e-10
8.543265570145174e-10
1.1378723704924768e-09
8.760745370785474e-10
5.425520265057262e-10
6.014762121377745e-10
1.0258463491618967e-09
1.4022862709838549e-09
1.34250306656503e-09
7.156387617718865e-10
6.509696904223725e-13
9.948859349721807e-10
3.706487607164151e-09
7.141405533367725e-09
7.590436058002985e-09
5.183329320663584e-09
1.7285090941402842e-09
2.7271556390621053e-12
1.4618364100595216e-09
4.412864896804952e-09
5.591412184500442e-09
4.329979407202646e-09
2.3307426946732544e-09
9.831956266629634e-10
9.621503144697705e-10
1.5190569918925935e-09
2.031690811450934e-09
2.229734029688269e-09
1.8514200399886167e-09
1.0196998749565297e-09
2.9960186748017866e-10
7.603941614214761e-10
2.6792202072690385e-09
5.884186259057225e-09
8.188058794006712e-09
7.49399936276645e-09
4.707650303322885e-09
1.926185648983022e-09
8.346279620250911e-10
1.4880447783874012e-09
2.5079968792862777e-09
2.5973546649546138e-09
1.8721800083056887e-09
1.0440209413891172e-09
1.0395388264285996e-09
1.4901408942113771e-09
1.8809195048033638e-09
2.3518270188928697e-09
2.78563680615088e-09
2.762464675801303e-09
2.102903450347171e-09
7.806630836920484e-10
6.515180683435812e-11
1.272593576837182e-09
4.078264376665536e-09
6.853038713657532e-09
8.470219376262669e-09
7.718569600602822e-09
5.6409739617411354e-09
2.746589482419031e-09
6.184919731396306e-10
2.3777299970786675e-11
5.810245385588971e-10
1.5351001481323207e-09
2.2852268046896866e-09
2.7208903119145112e-09
2.600128500238482e-09
2.842429517404446e-09
3.4328934673444682e-09
3.80758542057964e-09
3.6046669221891733e-09
2.8660366848645733e-09
1.6750065930947965e-09
7.263222132735601e-10
4.0626937586842874e-10
1.4754014076603326e-09
3.239206203315935e-09
5.2864689818823085e-09
6.653458509094401e-09
6.136870793560745e-09
5.34690451812219e-09
3.87174535332479e-09
2.194916437420519e-09
1.0910339328519666e-09
3.904950781947123e-10
2.340784315034354e-10
4.710156625165977e-10
1.6586462417623044e-09
4.062350710263888e-09
6.448214253088426e-09
8.682490019568923e-09
8.317886465750745e-09
5.571478109745146e-09
2.84956656536417e-09
5.114725251891486e-10
4.297246914252535e-11
7.520132536848167e-10
2.039637168655631e-09
2.7847373254488415e-09
3.238201681244122e-09
3.17553848946255e-09
3.2415062303866328e-09
3.890233696088579e-09
4.0557593730568575e-09
3.7300556871138625e-09
2.4997416953563454e-09
6.56152348678171e-10
1.0755874004443808e-10
1.3985374084488168e-09
6.232460178865625e-09
2.750488177884195e-08
4.547312529118518e-08
7.23245487007564e-08
1.1132576264334157e-07
1.4195273766646238e-07
1.5897786700947473e-07
1.4194092270453752e-07
9.295255641368487e-08
5.686592697906672e-08
3.504933335529954e-08
2.722063599311338e-08
2.3865625255983948e-08
2.0610290222065543e-08
1.8372864032490342e-08
1.55035647857381e-08
6.882637242734049e-09
2.3261592415213693e-09
1.990755294575965e-08
7.199936402810403e-08
1.4239703258194209e-07
1.8584025960875812e-07
2.0024242682166392e-07
1.5409003965221974e-07
8.188373834224701e-08
2.2529711772557328e-08
5.7582494968694956e-09
3.67359027966883e-08
9.123094830655594e-08
1.1839667838177789e-07
1.115295284733118e-07
9.714461446779205e-08
8.378460103840295e-08
9.497085542521896e-08
9.758354929281938e-08
9.106186598955413e-08
8.521812937927104e-08
8.604093745104036e-08
9.772541080914603e-08
9.92735872183612e-08
8.545269435324072e-08
6.967338540714133e-08
7.055992511557338e-08
9.000783598274585e-08
1.0852784398041553e-07
9.011941080769946e-08
5.37409583740872e-08
1.2099318870983141e-08
4.200898679257895e-09
3.298561056885624e-08
8.171428775575908e-08
1.1664627446582868e-07
1.285014462928993e-07
1.1365392568448734e-07
9.507651846653255e-08
8.57025972719542e-08
9.42259540286114e-08
9.520313133309293e-08
9.832517840731396e-08
8.713660103717331e-08
9.785148629924244e-08
1.332769796974873e-07
1.883299533537757e-07
2.146355105657613e-07
2.1096343686284716e-07
1.774077902662804e-07
1.4146123612871715e-07
1.2726017215614984e-07
1.1709158683560084e-07
9.883204141289302e-08
6.019173458206189e-08
2.7462067022897497e-08
1.5714258075586455e-08
3.3964913226188544e-08
6.822271971651187e-08
8.188045404565895e-08
8.444809407224306e-08
7.481584518908632e-08
8.711063822879534e-08
1.4279844385161333e-07
2.0641926713467343e-07
2.6221226686180836e-07
2.597559622103211e-07
2.0276017353463435e-07
1.1943944397578164e-07
7.60089455264113e-08
7.914653837102548e-08
1.3055180807059277e-07
1.5431057759085774e-07
1.4516379102821734e-07
9.504720458798672e-08
4.1925444495783607e-08
1.5610257987390292e-08
1.2390473255960136e-08
1.5078962298844295e-08
1.2482729901315212e-08
6.756419816100892e-09
8.27197542335984e-09
1.2999340154337175e-08
1.5527150985483545e-08
1.6501323466985493e-08
4.50685261453427e-08
1.0992546653010383e-07
1.8578972984020223e-07
2.358065893721029e-07
1.936468345543199e-07
9.863109754047585e-08
1.283616209488107e-08
1.8691066644070687e-08
1.0753124413615412e-07
2.0893693915694203e-07
2.1098706060921284e-07
1.4536383693867388e-07
5.0442545664157066e-08
2.9274140181041e-08
7.189189442261501e-08
1.129110055286579e-07
1.030294464246717e-07
4.201036733856416e-08
9.884744189722105e-27
9.223864567886462e-28
1.3163040980431834e-28
5.758828797557585e-29
4.322976200342356e-10
1.667913123887983e-09
4.165900577298655e-09
8.66783619046437e-09
1.3896833494879982e-08
1.7740214674757097e-08
1.73653689904769e-08
1.1805989906014453e-08
5.45827963508705e-09
1.723039510747042e-09
9.52853791111952e-10
1.9946243919919624e-09
2.6606075974163903e-09
2.0803940586342173e-09
9.703195610246478e-10
3.1822179859462696e-09
1.2011516368316691e-08
2.601514195464757e-08
3.413152227180541e-08
2.939962586865631e-08
1.8843567022302885e-08
9.495365620190771e-09
8.611271223041242e-09
1.2696735769618231e-08
1.3586024041464788e-08
9.177142689973055e-09
7.645319515495708e-09
8.763990629716982e-09
8.279833823461281e-09
6.95399842700685e-09
1.2174811260868225e-08
3.402274605497024e-08
5.7841277291909835e-08
6.93738562481102e-08
5.9336348829156444e-08
3.487758337993067e-08
2.216904917233037e-08
2.752237563700881e-08
3.090238571240987e-08
2.197580316344112e-08
1.8920963920753612e-08
3.752249214459706e-08
7.023888066294242e-08
7.737129948566308e-08
5.616073767789185e-08
3.062352297282577e-08
2.2321212191791136e-08
3.5759952260921454e-08
4.346856409410975e-08
2.7478655599122216e-08
8.504896507966445e-09
2.5875506888232158e-08
7.423073112732574e-08
1.0951676714499599e-07
9.515223503015113e-08
5.233668508058103e-08
2.8234003276965147e-08
3.7398849603101214e-08
5.923833232860908e-08
6.690881700566554e-08
6.233485228325688e-08
6.388767146138985e-08
6.03906839209298e-08
4.8556688421483544e-08
2.4956702132926297e-08
2.8967362654917633e-09
4.1458195801212906e-09
1.769156510552811e-08
2.234125990669606e-08
1.4103776661887197e-08
8.547410133026387e-09
2.7833694122821744e-08
5.535490142837492e-08
6.001853096665245e-08
3.107334303120756e-08
5.067218950853633e-09
1.5825630143483623e-08
6.194828225397253e-08
1.0356104807411967e-07
1.0156696480108407e-07
6.2479208131229e-08
1.8905780987205214e-08
5.396480966389824e-09
2.0785214614733334e-08
4.542953954816619e-08
5.3689281461703073e-08
4.31152501409086e-08
2.1699088389580664e-08
5.874898855250112e-09
2.3092934322235503e-10
2.4187439282862656e-09
6.562520980664442e-09
1.0011262657863076e-08
1.3899663589934475e-08
1.8197869953017557e-08
2.117462448301465e-08
1.9418858158241657e-08
1.1788290266052883e-08
5.1157165498198565e-09
3.6945822802922157e-09
9.8255232588846e-09
1.7185572395010518e-08
2.005597207533997e-08
1.765452890502076e-08
1.0723561962647204e-08
5.36342379461563e-09
4.297412454686589e-09
6.1688046704958476e-09
9.7464741324916e-09
1.4763113516320339e-08
1.6404845877635838e-08
1.3795204315322427e-08
1.1689135168242696e-08
1.0768113267549682e-08
1.4442529476214644e-08
2.019294151318964e-08
2.0574080370275995e-08
1.4928583515203535e-08
8.699750234216922e-09
6.502891353894062e-09
9.011670556905155e-09
1.233974612367822e-08
1.4500321457045153e-08
1.1286102570263544e-08
7.08938788350497e-09
3.196895111036503e-09
2.029775444055384e-09
3.759513982493211e-09
6.742023862070184e-09
7.689853839063926e-09
7.30047047970281e-09
3.691501469337009e-09
1.239400152769388e-09
5.065880798404857e-10
7.437500491347998e-12
2.5413904765929034e-10
1.3429714116715416e-09
2.927939372993011e-09
3.5600303459288456e-09
4.159780951333525e-09
4.4135827667852044e-09
5.741317360224431e-09
6.4180433469709876e-09
7.643140305347927e-09
7.089751798065871e-09
5.2738795310351294e-09
3.1866979906583424e-09
2.1409478360161584e-09
1.3500008322160819e-09
1.5722472472014525e-09
1.739633827883627e-09
1.849274925982315e-09
1.8000387411308215e-09
1.5931503306737933e-09
1.5200442142429985e-09
2.6347311971852376e-09
4.212972211386855e-09
6.134443347368366e-09
6.431497209511765e-09
5.304985957827029e-09
3.215723816273321e-09
1.723636868385414e-09
9.473709530731895e-10
8.13084850909489e-10
3.925909014163818e-10
9.803097351165117e-11
5.251374417043748e-11
6.836836088841081e-10
1.6571399959550871e-09
2.594960586971096e-09
3.6648315680226506e-09
2.5923099785706977e-09
1.4604807266887011e-09
1.6624154322641981e-09
2.9780761989153922e-09
4.2340579517859395e-09
4.7981166580589975e-09
3.1068076609175897e-09
2.315698601139305e-10
2.1038667868304483e-09
1.0567662650248445e-08
2.1931191687880166e-08
2.4292947482130248e-08
1.750532437574464e-08
5.439313983800868e-09
6.175982655300038e-12
5.190167298610876e-09
1.548445276283864e-08
1.7437941826691032e-08
1.2920562449929705e-08
6.081537721994705e-09
2.0380166376332455e-09
2.584383294424831e-09
4.901057860329551e-09
5.9077727732935825e-09
6.630692613663038e-09
5.62490721708501e-09
2.877030621132524e-09
7.474528499656021e-10
2.1150393373291394e-09
7.751505893122748e-09
1.8037802366339826e-08
2.568817393699127e-08
2.289434057348862e-08
1.4618400656368935e-08
6.106249196029055e-09
3.0782146760150777e-09
5.863015534040814e-09
9.371415899795217e-09
9.069712547645839e-09
5.998044885899647e-09
3.0629977018171127e-09
2.9784450107993936e-09
4.178305039225158e-09
5.413101637456396e-09
6.055597158742675e-09
7.601346163228893e-09
8.24296609170532e-09
6.6887264026555385e-09
3.027461439578602e-09
7.323885698722755e-11
3.4719212397033634e-09
1.2005138818376767e-08
2.1063140172033397e-08
2.6440737319744933e-08
2.4236063004430425e-08
1.7934171492433882e-08
8.083505595192996e-09
1.693169509378126e-09
1.5035029471377894e-10
2.684259780659912e-09
5.120862989710024e-09
6.9987071873055905e-09
7.838653035912607e-09
6.7138107863555175e-09
7.30541490082972e-09
8.584648667216463e-09
1.0776668559911348e-08
1.07083817690358e-08
8.94286061608523e-09
6.06115919884703e-09
2.893777782063807e-09
1.1804431805854716e-09
4.316481072781973e-09
1.0140031163919024e-08
1.657134341746701e-08
2.1031009982673516e-08
1.8646296381281894e-08
1.528669173898137e-08
1.0175458045551052e-08
5.122603583604364e-09
2.675455181079783e-09
1.129376399012852e-09
9.769416885100984e-10
1.303301034865234e-09
4.104915155321399e-09
1.1041730533693342e-08
1.8218721542841376e-08
2.6094356975234308e-08
2.4898266823769734e-08
1.6538667305709818e-08
8.311556107037753e-09
1.0379541705837745e-09
2.1025650137964793e-10
2.7390112410973123e-09
6.561379603592588e-09
8.112926415195684e-09
9.741581226274928e-09
8.26368157156649e-09
8.399133815567732e-09
1.067674817552239e-08
1.225667839887541e-08
1.2176248820736385e-08
8.406067403013377e-09
2.164496486689208e-09
3.8954226551232655e-10
2.0826165198461665e-09
9.58212035916085e-09
3.6981171504870207e-08
5.348481282383904e-08
8.06876482387735e-08
1.307445716980217e-07
1.8056890887782886e-07
2.0828424490677384e-07
1.832476074457815e-07
1.0107276013616953e-07
5.068776870068458e-08
2.6949512668316433e-08
2.465181013726123e-08
2.3888693418074566e-08
2.5919357627561552e-08
2.9779109184644977e-08
3.561736758997852e-08
2.4330112072124418e-08
6.214733728976068e-09
1.6816161939130418e-08
8.099964814261711e-08
1.7779417723882186e-07
2.402765566422712e-07
2.7220532834231203e-07
2.1349123203424478e-07
1.1807626836394452e-07
3.714177615165662e-08
1.7530274041930682e-08
6.617435617885843e-08
1.4950946719069384e-07
1.7855227381680645e-07
1.45495972768858e-07
1.0235416702454755e-07
7.395554553078865e-08
9.493690002887642e-08
1.0920003044786073e-07
1.0678778903041815e-07
1.0452813957323289e-07
1.198548358524374e-07
1.5456101907126286e-07
1.677982575614543e-07
1.4912071373859462e-07
1.2187613322942955e-07
1.2356719735753497e-07
1.5226201827464006e-07
1.8546169383384882e-07
1.5249371703364938e-07
9.497576404057323e-08
3.267743172920543e-08
2.0761670985961728e-08
6.44484198801756e-08
1.3896806393329573e-07
1.8919385266797848e-07
2.0969033890978504e-07
1.9007030616438687e-07
1.6484272614648183e-07
1.5969180333793623e-07
1.7693848902750326e-07
1.8003539794714467e-07
1.8965915858673687e-07
1.6139642175652363e-07
1.703692641742924e-07
2.1487152336415387e-07
2.982502800852683e-07
3.3432725736472255e-07
3.226873742175051e-07
2.653203160352717e-07
2.0917431062715826e-07
1.974063116609161e-07
1.9017967076132612e-07
1.6175843825246228e-07
9.297352626501391e-08
2.7613898386388325e-08
4.791696686277302e-09
3.89183812242964e-08
1.0219959906832717e-07
1.3389422441858768e-07
1.3937428604756674e-07
1.1775877237372058e-07
1.243540498735997e-07
2.0106024054381418e-07
3.0112339798515996e-07
3.8745657084388686e-07
3.932967632371807e-07
3.113868501284347e-07
1.8969301924657647e-07
1.301823290979002e-07
1.4476541212904912e-07
2.2591448348713942e-07
2.5586300257943216e-07
2.277820512651199e-07
1.4146607660847164e-07
6.327296588788114e-08
3.374675803392238e-08
4.2010002595808644e-08
4.584883442185238e-08
3.628872365111537e-08
1.9627691941841775e-08
2.362733177467843e-08
3.8149182596105443e-08
4.202888414907778e-08
2.6249282967657847e-08
4.8766529661664566e-08
1.3620647996741508e-07
2.6442246211489856e-07
3.6603703870604777e-07
3.154898863863217e-07
1.6624352438652108e-07
2.1245138697614645e-08
2.3931882932314935e-08
1.657816573971373e-07
3.276186783845499e-07
3.2909368556705893e-07
2.0958878266282365e-07
5.78862019237539e-08
4.421256817250028e-08
1.463622485477352e-07
2.3192754814092342e-07
2.0653389672553942e-07
8.45093752210171e-08
1.9530326038623776e-26
1.821573922850414e-27
2.3460016658755987e-28
6.521749249747776e-29
4.4345600533076277e-10
2.434268364851703e-09
7.392272024449315e-09
1.7157367080519942e-08
2.997404998610083e-08
3.9028777709208335e-08
3.7880926872734365e-08
2.534393705129129e-08