# vtk DataFile Version 4.1 
COMMENT
ASCII
DATASET STRUCTURED_POINTS 
DIMENSIONS 400 400 1 
ORIGIN 0 0 0
SPACING 0.002506265664160401 0.002506265664160401 0 
POINT_DATA 160000
SCALARS U double 1
LOOKUP_TABLE default
1.1988580106945384e-06
1.1039365212538582e-09
2.676914910323093e-09
4.356757205985871e-09
2.9123181035035e-09
1.0294387741499205e-09
6.255473468881938e-10
3.0472081155892676e-09
6.1457603915688894e-09
7.94527020177792e-09
6.557969731268217e-09
2.7717325114734383e-09
1.089076241558591e-09
1.5584776069403363e-09
5.015746581845811e-09
8.43106920007677e-09
9.631584229569778e-09
9.383526844804661e-09
7.602430879888525e-09
5.1208931619139666e-09
3.923434102969782e-09
1.9102084466783848e-09
9.200089822045752e-10
3.673980540690222e-10
5.664338647290324e-10
1.0123362530694146e-09
9.523790703559364e-10
1.285387815235678e-09
1.4165351850125588e-09
4.40062307140281e-09
9.383285338406648e-09
1.4171054151946988e-08
1.3178789529975756e-08
9.937953924831086e-09
3.725646151051769e-09
5.660081730012512e-10
8.715158583502276e-10
2.3096115106340953e-09
2.1212416140849826e-09
7.368642522650403e-10
1.1540549393741771e-09
4.573402548451904e-09
6.629034895692049e-09
4.646669746646683e-09
1.6363263757442925e-09
4.46463906357605e-09
1.442912253482257e-08
2.751749710019494e-08
3.2275140504653714e-08
2.1317039546270633e-08
9.59751221618106e-09
7.186649038122491e-09
1.7766363010843684e-08
3.036300526210688e-08
2.97064109024814e-08
1.3191996109989118e-08
1.8428264467014885e-09
9.660356750363786e-09
3.096351065566399e-08
4.121478486314143e-08
3.152578558061281e-08
1.497075992036538e-08
1.8235045488577132e-08
4.8936940194095215e-08
7.307241735598939e-08
6.188469263390349e-08
2.4227247848656437e-08
9.72007941979245e-10
2.0265046791024933e-08
5.596801533756028e-08
6.822280986307654e-08
3.416321354197662e-08
1.0238590949242016e-08
3.956237113932406e-08
1.140518501745623e-07
1.5355310431955113e-07
1.2302546236574818e-07
5.516021627347849e-08
3.926215577145993e-08
1.0373838308331216e-07
1.7207280957406795e-07
1.582387746597009e-07
7.149914690640066e-08
1.8184965807226597e-08
5.9332143374560346e-08
1.500153737084586e-07
1.785704658171785e-07
1.0540360976524497e-07
3.488380823090021e-08
6.779053096202687e-08
1.8943779293888482e-07
2.4901455945281487e-07
1.8159023100919625e-07
4.4966622373829554e-08
1.064867151101901e-08
1.1066252080444679e-07
2.1459902927433454e-07
1.9084373691753296e-07
6.820258126910457e-08
2.684007948428849e-08
1.458119438988102e-07
3.239831274012549e-07
3.4190429268414323e-07
1.8041102752001008e-07
2.1527976481010775e-08
3.829033795361601e-08
1.8929366653347443e-07
2.6740351840676717e-07
1.670112750383497e-07
2.1975218337262483e-08
3.5081547698953655e-08
2.1633800916257765e-07
3.606160584818424e-07
2.9830584200306317e-07
9.578528468327402e-08
1.000878310190697e-09
1.1697157024663306e-07
2.8648158356410677e-07
2.931340156740207e-07
1.3023523061064695e-07
4.1188330346915445e-26
3.788090321537891e-27
2.546499105958162e-28
1.2354544637126489e-28
2.165319558558514e-10
3.629402048639753e-10
3.042845988103679e-10
1.0735112976725067e-10
2.0508853268537034e-11
1.252827792626675e-10
1.8911977650480267e-10
1.1041257035756236e-10
3.225542985942668e-11
1.0204072651425951e-10
2.9819232570807937e-10
4.29150028875538e-10
3.649134601521987e-10
1.9246639617145755e-10
3.996882612170416e-11
5.504472218355768e-12
3.6692594862099334e-11
5.790964235050152e-11
8.097556033045502e-11
2.1026331121546484e-10
4.0537395760442666e-10
4.3594820246098007e-10
3.0085639984768066e-10
1.5763381624362646e-10
5.1141266944518145e-11
6.381362625714566e-11
1.0510768059527332e-10
1.3029840514230333e-10
2.5570787721701753e-10
3.9188957119480385e-10
3.9719955041376727e-10
2.2013060854163658e-10
1.1661525960932558e-10
3.066463180831526e-10
6.906457256568095e-10
7.885879395203204e-10
4.0930427242205485e-10
2.944179039192581e-11
1.103533091197059e-10
6.181585054272189e-10
9.991580301688065e-10
1.0665659650613436e-09
8.865978373395021e-10
6.438563937321938e-10
3.6642287168954595e-10
5.7166586811680813e-11
8.344951148145635e-11
9.033051746048606e-10
1.7774365098353273e-09
1.970893949425999e-09
1.2184976499935184e-09
3.3010979288081407e-10
2.8578314646581067e-11
5.50429450017277e-10
8.40472017636505e-10
6.138441974575523e-10
1.7690985462811352e-10
1.6623484495465536e-10
8.580785111170251e-10
1.5783037225721473e-09
1.6785898229546702e-09
1.040953135128791e-09
2.618933477791283e-10
2.4414518339280914e-11
3.7260714521799804e-10
9.37131941178379e-10
1.3545017465038456e-09
1.6588608760239258e-09
1.6458868002801289e-09
1.0927391468686923e-09
4.0111611896256377e-10
3.863413488083753e-11
4.411305301522061e-10
1.0227674243879901e-09
1.072346456254207e-09
6.138010562002904e-10
6.235942920021078e-10
1.198069553801145e-09
1.7099745093314632e-09
1.382557542931313e-09
5.498258126523667e-10
6.317372431308944e-11
6.410296087090179e-10
1.6664276548366246e-09
2.1139721717469916e-09
1.83849012595777e-09
9.558432171274037e-10
2.70416750007748e-10
9.57332829501537e-11
9.054137236841332e-11
8.797373442020469e-11
1.6542581218070482e-10
4.596390825995999e-10
8.190391983137014e-10
1.4194426921793163e-09
1.2327336194469025e-09
6.783187479925811e-10
2.632461908514605e-10
1.090000741758255e-10
1.9110725744784364e-10
4.016479978393727e-10
4.069758591425733e-10
3.513444342737614e-10
4.063949942247538e-10
5.218046290721627e-10
4.1025147452978635e-10
3.270759946781195e-10
3.1326763728758986e-10
2.9964597584388196e-10
3.45766740359103e-10
3.191519672579388e-10
2.6881824529325646e-10
2.1605258036111413e-10
1.5109283863477979e-10
1.685407565198853e-10
9.141839716600196e-11
3.323205594389876e-11
5.099867137518667e-11
1.3713792064022993e-10
1.424098292351594e-10
4.285669189455112e-11
3.176357054221416e-11
6.563449070702771e-11
1.653440399789711e-10
4.5639956933433736e-10
6.16317790768618e-10
5.671358197817266e-10
4.237093848693925e-10
2.7140247920916694e-10
3.679557901237395e-10
6.301979378886395e-10
9.159923746626766e-10
1.0333023327616678e-09
8.153323001901533e-10
4.963140361631039e-10
1.8896408518095396e-10
7.800605202081585e-11
7.376007722053306e-12
1.1499974499730471e-10
6.973186179610392e-10
1.765602248546603e-09
2.493102715305259e-09
2.3851800014351797e-09
1.7227937997952893e-09
1.0263112663506345e-09
3.8960069861686085e-10
3.518401341961224e-10
7.83008945883108e-10
1.2821138152789168e-09
1.4870294481731394e-09
1.2744094648655494e-09
7.558889367894405e-10
4.088046844979642e-10
1.3592270611253467e-10
1.7684825241865427e-11
6.398874576365002e-11
2.474462932482019e-10
3.090571471830897e-10
2.3205117852399504e-10
1.471283513483498e-10
8.340885461019847e-11
4.647029052908284e-11
3.236489519672878e-12
4.326632695631417e-11
1.3307810976724182e-10
2.65346353535646e-10
3.415727857827667e-10
3.292762807738199e-10
2.749195393031406e-10
9.789574391644229e-11
9.718490767531073e-12
1.5315427012609045e-10
5.915738937263118e-10
1.2814257492789842e-09
1.9520688595290585e-09
1.8305796628134043e-09
1.3127155607292754e-09
8.990446282611146e-10
6.98062617300678e-10
5.196144387772549e-10
7.402941288928269e-10
1.3764104280097251e-09
1.9029804238152835e-09
2.0270492228828e-09
1.4754262138971717e-09
9.41644224608586e-10
4.5684336814226377e-10
1.0223843467018291e-10
5.041772890296195e-11
1.1581712804727069e-10
1.3541380307539703e-10
3.5210563181398207e-10
6.898240769566315e-10
9.275997875209195e-10
1.1554077291141376e-09
9.876325517181303e-10
5.902537271705578e-10
1.3503923073495454e-10
7.37038041982219e-11
6.061006209291799e-10
1.4094711200910007e-09
2.1824529010920663e-09
1.8758202499832396e-09
1.1716649780082543e-09
8.086161553013909e-10
9.851292047587438e-10
1.1502514099506429e-09
1.3130222156805365e-09
2.139392842786204e-09
3.734569791739505e-09
5.126279252141017e-09
3.7548508590145e-09
1.169580304492822e-09
3.702411943014175e-10
3.4773722371109596e-09
7.56118135674447e-09
7.348610335103395e-09
4.102854109873161e-09
1.8358030188531296e-09
3.6683926825670652e-09
6.399619129862632e-09
5.437365789546053e-09
2.6881029577449967e-09
4.14468603542151e-09
1.0307131642932409e-08
1.4171610670141842e-08
1.0363301769486338e-08
2.6864946356744735e-09
9.148209273650672e-10
6.775966094041446e-09
1.2475204116713426e-08
1.0454023089108287e-08
3.309198346617064e-09
1.627193047069612e-10
3.097830461947508e-09
6.204895762597993e-09
4.3553082285657856e-09
9.11546196714994e-10
7.228229177598651e-10
4.92247603311894e-09
7.857774054700624e-09
6.254546990065914e-09
3.705958509842339e-09
3.6681866884939116e-09
5.12265479284133e-09
5.9544512202980906e-09
4.993460100131112e-09
6.005076782012254e-09
5.946747083754682e-09
3.977741375862302e-09
1.7250349806508266e-09
3.7841977261751415e-09
1.0128632211933608e-08
1.153624564895598e-08
5.838971410281818e-09
1.2737653042034517e-09
7.964020801414758e-09
2.1459472380098546e-08
2.3000351631013304e-08
1.0825469187454018e-08
7.182724934819978e-10
9.575683491259589e-09
2.719222518963241e-08
2.841197341407474e-08
1.1796679855231894e-08
4.0984559226816955e-11
1.295792841456108e-08
3.339608827635583e-08
3.2537786437004945e-08
1.124214893064795e-08
1.2646767218460073e-09
2.1464562314996376e-08
4.653361885056723e-08
4.286242732550129e-08
1.5799940857898077e-08
6.7772211557930015e-31
9.130366388926506e-10
6.969032681215536e-09
1.6899076292616676e-08
2.7503740267738445e-08
1.8385151365731764e-08
6.4987364057969234e-09
3.9490132088029764e-09
1.923669752304845e-08
3.879752521559572e-08
5.015763735616583e-08
4.139975850035386e-08
1.7497649624007762e-08
6.875221331690933e-09
9.838501731398196e-09
3.16638694133215e-08
5.322443425115499e-08
6.080315668106841e-08
5.923719705570746e-08
4.79933295425796e-08
3.232764847915106e-08
2.4768218063060495e-08
1.2058940742095779e-08
5.807917883460564e-09
2.31934445190189e-09
3.5758361455061345e-09
6.390770027253844e-09
6.012266772982256e-09
8.114515209841255e-09
8.942434468271487e-09
2.778066076433839e-08
5.923567245175781e-08
8.94603427016103e-08
8.319628272551927e-08
6.273723565907434e-08
2.351960396765785e-08
3.573148799353603e-09
5.501786001374323e-09
1.4580329383648733e-08
1.33911704601656e-08
4.651744875531328e-09
7.285424871424644e-09
2.8871399044136252e-08
4.184838525001798e-08
2.933392699646866e-08
1.0329952646864747e-08
2.8184786846759357e-08
9.108950068272836e-08
1.7371500344847573e-07
2.0374949522666586e-07
1.3457218092213273e-07
6.058806372033269e-08
4.536854343600853e-08
1.1215714134385134e-07
1.9167839082921597e-07
1.8753338116386453e-07
8.327965444658134e-08
1.1633565413964321e-08
6.09847945142897e-08
1.9546931687647856e-07
2.601845098251353e-07
1.9901889808187766e-07
9.450879931860336e-08
1.15115883483053e-07
3.0893364696729187e-07
4.612983218191829e-07
3.906714173590392e-07
1.5294401334002922e-07
6.136181731138412e-09
1.279310636562756e-07
3.5332006911703277e-07
4.30683270628748e-07
2.1566869750713783e-07
6.463512490176694e-08
2.4975299947788026e-07
7.19997079466896e-07
9.693642539243152e-07
7.766465293445919e-07
3.482205203938444e-07
2.4785777210767617e-07
6.548892695233247e-07
1.086277163933502e-06
9.989443874783863e-07
4.5136643446109327e-07
1.1479973583391065e-07
3.745574480625345e-07
9.470309405757927e-07
1.1272961698615873e-06
6.654016666988803e-07
2.2021773437686193e-07
4.2795434035892305e-07
1.195900438685497e-06
1.5720021663510947e-06
1.1463596231558635e-06
2.8386945703287716e-07
6.722391944016042e-08
6.986006072123943e-07
1.3547406210198705e-06
1.2047760120056259e-06
4.30555569687823e-07
1.6943853880291707e-07
9.204951396917322e-07
2.0452706831886327e-06
2.1584050746480814e-06
1.1389154381907642e-06
1.3590380313371593e-07
2.4172279060978207e-07
1.1949905841692333e-06
1.6880896890087083e-06
1.0543242400856188e-06
1.3872719293251123e-07
2.2146604239883536e-07
1.3657186142647877e-06
2.276530442236522e-06
1.8831727385517003e-06
6.046822135923946e-07
6.318437264595906e-09
7.384289586651227e-07
1.808527465109138e-06
1.8505235544593657e-06
8.221610218496687e-07
2.6001750530576735e-25
2.3913807308602593e-26
1.607577532805223e-27
7.799291325182229e-28
1.3669429789069719e-09
2.291202528702704e-09
1.920915988078242e-09
6.776961512820007e-10
1.2947018776075222e-10
7.908967284489961e-10
1.1938928350963291e-09
6.970226968892147e-10
2.03625064040533e-10
6.441721459537823e-10
1.8824561223746277e-09
2.70917803587229e-09
2.303659477383404e-09
1.2150196855804737e-09
2.5231890612297657e-10
3.474914186097751e-11
2.3163641009188854e-10
3.6557735189317434e-10
5.111900145143505e-10
1.3273696986279918e-09
2.5590822518039396e-09
2.7520941755029567e-09
1.8992741362609472e-09
9.951253499782861e-10
3.2284932496871057e-10
4.028485681294491e-10
6.635334976355768e-10
8.225598358822311e-10
1.6142563624451846e-09
2.4739567688023768e-09
2.507478097249324e-09
1.3896608867691884e-09
7.361796078843009e-10
1.935825268167282e-09
4.359972281537836e-09
4.978270957362196e-09
2.583893907079557e-09
1.8586286030448825e-10
6.966485870600715e-10
3.902368246319656e-09
6.307577321598659e-09
6.7331163740667964e-09
5.596996914728546e-09
4.0645962548940834e-09
2.313188230287809e-09
3.608865220906436e-10
5.268078023953753e-10
5.702468540294594e-09
1.1220765766276872e-08
1.2442041802511613e-08
7.692244781560608e-09
2.08394766427576e-09
1.8041183067290252e-10
3.4748019945177524e-09
5.305809569469839e-09
3.8751324835211874e-09
1.1168129097967408e-09
1.049422720366171e-09
5.4169574716408715e-09
9.963661869793398e-09
1.0596757249447705e-08
6.571425329861069e-09
1.6533045737020118e-09
1.5412623183200092e-10
2.3522288847997265e-09
5.916013284228734e-09
8.550824034182056e-09
1.0472210526625124e-08
1.0390306580042768e-08
6.898344859468871e-09
2.5322029738063405e-09
2.438931436829705e-10
2.7848096535667676e-09
6.4566208913415195e-09
6.769607994065731e-09
3.87486013739804e-09
3.936683783091179e-09
7.563284404547294e-09
1.0794885403411799e-08
8.7279372634631e-09
3.4709912966717543e-09
3.9880893589059895e-10
4.046751064677071e-09
1.0519978788497045e-08
1.3345279251520623e-08
1.1606190686887733e-08
6.034135559455106e-09
1.7071118964445628e-09
6.043539322368834e-10
5.715779584145837e-10
5.553687358459969e-10
1.0443153833650976e-09
2.9016521571025475e-09
5.170506483254738e-09
8.9607892487103e-09
7.782114927587425e-09
4.28215339562486e-09
1.6618449267043126e-09
6.881057602147798e-10
1.2064395888078684e-09
2.5355606680247723e-09
2.569194884148736e-09
2.2179996745066193e-09
2.565527946315156e-09
3.2940965745776058e-09
2.589873492243567e-09
2.064795622092412e-09
1.9776249450871745e-09
1.891632859540597e-09
2.182788291941867e-09
2.0147720881347128e-09
1.697020707882638e-09
1.3639167328999969e-09
9.538328609215993e-10
1.063979692391906e-09
5.771145217576366e-10
2.0979039960917875e-10
3.2194913445618115e-10
8.657369625657404e-10
8.990179552524526e-10
2.7054969255177896e-10
2.0052000900320054e-10
4.143434898165027e-10
1.0437991642389744e-09
2.8812014578257407e-09
3.890748012397137e-09
3.580267512354488e-09
2.674831834658997e-09
1.7133346990126983e-09
2.3228653797070527e-09
3.9783718902534834e-09
5.782561471485615e-09
6.523126636315316e-09
5.147105233570924e-09
3.1331771995713137e-09
1.1929099724921912e-09
4.924438275202729e-10
4.6563944468023464e-11
7.259810376663617e-10
4.402097533897081e-09
1.1146057345918168e-08
1.5738689649342756e-08
1.5057385149015327e-08
1.0875812207147691e-08
6.4789927849959535e-09
2.459507362073169e-09
2.221128974871722e-09
4.943051369788566e-09
8.093846799785347e-09
9.387457179583093e-09
8.045210063175429e-09
4.7718456654298e-09
2.580740062177159e-09
8.580654437825978e-10
1.116424021665321e-10
4.039540787638477e-10
1.5621018702540144e-09
1.9510445733200844e-09
1.4649141646401077e-09
9.288054785210128e-10
5.265511399342129e-10
2.9336195258303887e-10
2.0431610695688835e-11
2.73135674696437e-10
8.401078126022325e-10
1.6751030281441798e-09
2.1563123071879397e-09
2.0786857918745886e-09
1.7355375216069384e-09
6.18005316040004e-10
6.13517883203004e-11
9.668464565010934e-10
3.734542448192589e-09
8.089503113035212e-09
1.232320103205717e-08
1.1556252782746265e-08
8.287032331779133e-09
5.675572168865849e-09
4.406794321812801e-09
3.2802701385014106e-09
4.673397318268193e-09
8.689131187244987e-09
1.2013311010146776e-08
1.2796544012021397e-08
9.314207207940538e-09
5.944498844844391e-09
2.8840031120302875e-09
6.454202563056422e-10
3.182817070299721e-10
7.311410890629896e-10
8.548527935721001e-10
2.222805032815296e-09
4.3547853015496064e-09
5.855837822069233e-09
7.293964887745404e-09
6.234818214129166e-09
3.726208378529554e-09
8.524881586209364e-10
4.6528419913485507e-10
3.8262481166606495e-09
8.897839785196182e-09
1.3777590740135241e-08
1.1841851750108865e-08
7.396595153769281e-09
5.104706932291427e-09
6.219014853667304e-09
7.2614135987234965e-09
8.288968211547627e-09
1.3505757217273115e-08
2.357593795280187e-08
3.236165028821672e-08
2.3703970152052647e-08
7.383434833788015e-09
2.337292890797938e-09
2.195227741686888e-08
4.77329257337184e-08
4.63909877070523e-08
2.5900877294547246e-08
1.1589227268367168e-08
2.3158168970897667e-08
4.040010816264038e-08
3.432550618402447e-08
1.69697052342461e-08
2.6164957747228987e-08
6.506781493885257e-08
8.946385594119698e-08
6.542241091436912e-08
1.6959552069770065e-08
5.77516625052482e-09
4.277594612283345e-08
7.875462358602227e-08
6.599512486046652e-08
2.0890613710292756e-08
1.027229492398242e-09
1.955627095809496e-08
3.917084046097737e-08
2.7494593028924873e-08
5.754493227680521e-09
4.563103439026171e-09
3.107506245770581e-08
4.960528357791641e-08
3.9484283326780354e-08
2.339531800341715e-08
2.3156868552440355e-08
3.233876946597292e-08
3.758981096651177e-08
3.152317724812105e-08
3.790940469975483e-08
3.754117558003992e-08
2.5111054043507797e-08
1.088996054115608e-08
2.388923377219405e-08
6.394096720416931e-08
7.282707963569312e-08
3.686079932994603e-08
8.041143546107026e-09
5.027600787760951e-08
1.3547134410290827e-07
1.4519874930301438e-07
6.834002418107352e-08
4.534377099336066e-09
6.045026132459874e-08
1.7166159681562243e-07
1.793617363393501e-07
7.447117280581652e-08
2.5873112011231305e-10
8.180201022732673e-08
2.108259181047268e-07
2.054075507859339e-07
7.09704786429123e-08
7.983768301919065e-09
1.3550347631519157e-07
2.9376173747426614e-07
2.7058589971130586e-07
9.974332951218998e-08
1.5508450245328747e-08
4.080724875877497e-09
2.994057205884216e-08
6.905403083408042e-08
1.169491636669095e-07
8.281857012583197e-08
2.8257289041968496e-08
9.033157842994699e-09
5.380804253949723e-08
1.2389303729450744e-07
1.704119059588028e-07
1.4468173063339644e-07
5.920949730009836e-08
1.7497658689833594e-08
2.091009991891112e-08
8.969149074570295e-08
1.6025933467979415e-07
1.8220297165893354e-07
1.7699616988714394e-07
1.4617724267100783e-07
9.498697716532472e-08
8.172954818420433e-08
4.1931187952164854e-08
2.2106096936925848e-08
1.063327054091969e-08
1.1631011811656387e-08
2.4823095232599827e-08
2.386908903224833e-08
3.405394234524956e-08
2.7458718939281672e-08
8.568766949798657e-08
1.845852106171994e-07
2.9042024466089784e-07
2.711156674519116e-07
2.0211277807197574e-07
6.900850373420947e-08
5.937920214208537e-09
1.863340924439511e-08
5.545755963399307e-08
5.0283142185820414e-08
1.504560070300485e-08
2.6633125523066447e-08
1.1239720664740547e-07
1.6876539948307221e-07
1.2179583983049731e-07
4.158022944713026e-08
9.431326730999506e-08
3.229350079394376e-07
6.394058182538801e-07
7.596764152599904e-07
4.956132697776175e-07
2.1273219701857954e-07
1.624930118063422e-07
4.4940398967852284e-07
7.738573111512699e-07
7.675545380372382e-07
3.449600916004266e-07
5.339290536957418e-08
2.405582273235708e-07
7.903369283258022e-07
1.0512934106378065e-06
7.990937853029687e-07
3.5260166101280096e-07
3.882320652697089e-07
1.133700589800255e-06
1.745991499873965e-06
1.517667213329241e-06
6.124460103767149e-07
4.912174946651405e-08
5.21053141515602e-07
1.4026931586633476e-06
1.7248253635180883e-06
8.766083112121687e-07
2.679234882685508e-07
9.486700562997513e-07
2.7570266074146286e-06
3.707698315083069e-06
2.9470037157313574e-06
1.302569864939686e-06
9.546416643512134e-07
2.6032143320213014e-06
4.3487665664731465e-06
4.008681937303063e-06
1.8291258710916787e-06
5.036050151594406e-07
1.5651659303349288e-06
3.853580282447779e-06
4.588381513574416e-06
2.711163201611464e-06
8.578497102432049e-07
1.6001740764747973e-06
4.6519293214565315e-06
6.174514359131915e-06
4.5606175805556865e-06
1.1611190400121194e-06
3.2528148001635576e-07
2.8546205845867464e-06
5.471472429435795e-06
4.845991514650293e-06
1.7069702873083948e-06
5.76015913902584e-07
3.5126493500379095e-06
7.951155795612404e-06
8.431561885672902e-06
4.404108110943128e-06
5.044657635211482e-07
1.079756941594019e-06
5.036675862217312e-06
7.045715296913238e-06
4.472085097524493e-06
6.251484205434235e-07
8.057690290922083e-07
5.315171130689424e-06
8.994998775414637e-06
7.457180647880756e-06
2.3931886400854217e-06
2.9733596530130665e-08
2.989780263604419e-06
7.304285801495238e-06
7.445706304333865e-06
3.3161067537337856e-06
7.894772454859014e-25
7.266235046078468e-26
4.946744159158203e-27
2.1808932225150052e-27
5.3173760746876674e-09
8.919811362296037e-09
7.288898015068901e-09
2.4055589417817056e-09
6.409484479292669e-10
3.3049017069859313e-09
4.955867320460995e-09
3.1058648355468764e-09
7.23376689882944e-10
2.117628059420375e-09
6.7678914197593545e-09
9.73182050559287e-09
8.320939068461889e-09
4.1875399396991055e-09
8.435710347223574e-10
5.270223770666225e-10
1.203790832318533e-09
1.3102146979585631e-09
1.4654658184174386e-09
4.2828189281538155e-09
9.130452508780269e-09
1.0085943604446882e-08
6.8752296389445615e-09
3.597953757309486e-09
1.6645009102525582e-09
2.47147975330277e-09
3.0694967424820077e-09
2.877895505178128e-09
5.813991554196451e-09
9.723739659398122e-09
1.0320421621792096e-08
5.6338268780115496e-09
2.44011833823962e-09
6.8614699776014085e-09
1.66076073116478e-08
1.9353424609405425e-08
9.741165056774629e-09
7.971764915238658e-10
2.3189690934338283e-09
1.368007880456946e-08
2.1130230123870557e-08
2.1174963745200493e-08
1.7336223536767147e-08
1.4398229415424814e-08
9.473640911843061e-09
2.26193810161718e-09
1.170097675176601e-09
1.8702273954742714e-08
3.792548548492537e-08
4.2630894342027416e-08
2.617306810378379e-08
6.776616367306412e-09
1.2484880379328757e-09
1.4327292689658421e-08
2.1366944806644634e-08
1.6002760162706808e-08
5.040771236326395e-09
3.553988277083556e-09
1.8527190719266734e-08
3.4974133646377915e-08
3.713696388526995e-08
2.3262733012658708e-08
6.334744450737978e-09
1.6510167498590037e-09
8.613758423127984e-09
1.9419874518927212e-08
2.7817547680830342e-08
3.5494458965788304e-08
3.772053969504851e-08
2.647296149971413e-08
1.1362847576327945e-08
2.121192130704151e-09
1.136989851259125e-08
2.466898213300456e-08
2.4760120430247014e-08
1.3447050396258693e-08
1.378575996549603e-08
2.8321272755080996e-08
4.156537634742415e-08
3.5007497505823333e-08
1.4363100936128524e-08
5.584926907963102e-10
1.28388632809104e-08
3.604839206662632e-08
4.577783436795036e-08
3.983907135371744e-08
2.0782763540270455e-08
6.186186228533528e-09
3.6358844271335348e-09
3.899985124731919e-09
3.227886555702189e-09
3.479608178378308e-09
8.72199978687573e-09
1.7159418840440403e-08
3.2361073235144745e-08
2.8315303745384924e-08
1.584123021186237e-08
5.1568327881441286e-09
1.0341734209091791e-09
2.6732134609328606e-09
7.226016718825796e-09
7.4336913006874506e-09
6.4898403659673595e-09
8.19013319034778e-09
1.096724456994156e-08
7.955374970492672e-09
6.0681156683203885e-09
5.446777406931081e-09
5.071055903247717e-09
6.199251439295793e-09
5.2012421055407634e-09
4.126564726054945e-09
3.399893481907549e-09
2.35433101387405e-09
3.2939465884257898e-09
1.7379719304288785e-09
4.2209946314668826e-10
9.409538196167598e-10
3.4571492759036927e-09
3.6841316219999974e-09
1.1485633100688329e-09
7.757459772186693e-10
9.503644658459425e-10
2.4913528965687826e-09
8.344861425222992e-09
1.0780825148040583e-08
9.428062564949506e-09
7.2787061649388264e-09
4.6445207882080985e-09
7.995544581417086e-09
1.4791447576699571e-08
2.0812209210813076e-08
2.2112499977526138e-08
1.6729717496212786e-08
9.215108169911264e-09
3.715034387619744e-09
2.4898277355088544e-09
2.553994078133279e-10
1.141814484531567e-09
1.2909690462468423e-08
3.742995280260998e-08
5.670212427150723e-08
5.5754027259787536e-08
4.08201302969441e-08
2.4619641332338488e-08
7.409400791633717e-09
3.735419358746449e-09
1.2355133815537749e-08
2.426682721930308e-08
2.8898045854990064e-08
2.452901183620119e-08
1.5200409206199674e-08
9.537920321377601e-09
3.5800253435932796e-09
2.4474258250420254e-10
3.948787823709893e-10
3.357962552614158e-09
5.0488206543449094e-09
5.046642761721517e-09
5.279028864371981e-09
3.865064658873382e-09
2.2510189004354246e-09
2.452928654198579e-10
8.921031427397471e-10
4.208941903865367e-09
1.0411191378414442e-08
1.5037924242317532e-08
1.5723442041703167e-08
1.2892726518385668e-08
5.362188463296452e-09
4.922131935912697e-10
2.3889618310381188e-09
1.31097199560736e-08
3.252055381139874e-08
5.36062449218777e-08
5.359390843159711e-08
4.090482114648403e-08
2.5233611601123316e-08
1.431705012878787e-08
7.496882470312688e-09
1.1878763691474057e-08
2.954046693527285e-08
4.6377481382434195e-08
5.2941132033493026e-08
4.111692210117528e-08
2.8301805137318495e-08
1.5708293606829466e-08
5.532960307180058e-09
7.109819700085818e-10
3.513388689121526e-10
1.0664253743879167e-09
6.075820504567239e-09
1.6358957393213477e-08
2.6285909533957356e-08
3.739281835909992e-08
3.560922599854023e-08
2.498057211587795e-08
8.757831835178356e-09
8.949621251485233e-10
1.2604953356737719e-08
3.583266559148766e-08
6.184560087714714e-08
6.014310757735479e-08
4.1753112468776236e-08
2.378549328274352e-08
1.8756461127162023e-08
1.9041608426892234e-08
2.6674776811198928e-08
5.5831565048374743e-08
1.0529465459542375e-07
1.4986344676770815e-07
1.1440126078738881e-07
3.881030996296827e-08
4.1455374221417665e-09
7.561066616030936e-08
1.8616506306177802e-07
1.9619101555691984e-07
1.2139941862420282e-07
5.6105219144366494e-08
8.561811038059563e-08
1.4183893160595707e-07
1.1669556968725766e-07
5.386696967321368e-08
9.800820331963512e-08
2.655920737906572e-07
3.716612669970294e-07
2.759509402968314e-07
7.079322258276006e-08
1.2124695983178521e-08
1.5254962853787897e-07
3.0069839840176747e-07
2.53948257202893e-07
7.933557123242844e-08
4.316991570705142e-09
7.955333455463825e-08
1.538033402780757e-07
1.0049686062587749e-07
1.6674871588117704e-08
3.071151015598683e-08
1.51970683476492e-07
2.2511980907620985e-07
1.7283247833382358e-07
1.0501819906298838e-07
1.117395867300336e-07
1.4739252226904907e-07
1.5349899660533813e-07
1.1744792817111095e-07
1.4396657630455028e-07
1.5287674410902026e-07
1.0903613908669679e-07
4.1578390182592353e-08
9.075361371738233e-08
2.5729918850062916e-07
3.058143058104378e-07
1.6532739150581147e-07
4.092524027773472e-08
2.085874297591078e-07
5.619166471404212e-07
6.086881331157345e-07
2.953820792451947e-07
1.759063189432319e-08
2.3785929071934988e-07
6.953571416166808e-07
7.431598667690096e-07
3.139676451839517e-07
2.700462724076056e-09
3.310643877775699e-07
8.652888654305761e-07
8.469046761582778e-07
2.903885333278386e-07
2.808757152392954e-08
5.531958794733103e-07
1.2106217716096932e-06
1.114753153139935e-06
4.134151708135665e-07
6.417733753798413e-08
9.593132902059122e-09
6.723096591168031e-08
1.5878260519249655e-07
2.667981152196356e-07
2.0469701654159522e-07
7.644033197285924e-08
9.799671770489339e-09
5.833092101312876e-08
1.7281598626805827e-07
2.623142083734766e-07
2.3096031637323605e-07
9.398362917034999e-08
1.9508136412586723e-08
1.5145561135588625e-08
1.1022549590046415e-07
2.0678062913833552e-07
2.2766099717860675e-07
2.1513405668311486e-07
1.8291748097969857e-07
1.2542243513595944e-07
1.3859017795495178e-07
8.700933803641218e-08
5.013404802470574e-08
2.7338510061273933e-08
1.840728365257872e-08
5.49616778042863e-08
5.9057527019973146e-08
8.702919333926236e-08
4.530123617198091e-08
1.1871113117720348e-07
2.6583770432652277e-07
4.4316300642747186e-07
4.15740220506635e-07
3.040307294414876e-07
8.752212580474599e-08
2.0146577081328806e-09
3.655169776566842e-08
1.1379681522396812e-07
9.433026979731632e-08
2.200485365857249e-08
5.4802030606492167e-08
2.428535570707891e-07
3.694155521187091e-07
2.7358086169760283e-07
9.45816544548541e-08
1.564393411697975e-07
5.732226506623756e-07
1.174490519211278e-06
1.4213078017084695e-06
9.05057791447462e-07
3.688411154668875e-07
2.9415376245057405e-07
9.056388793836202e-07
1.5659556843152048e-06
1.586307115332752e-06
7.226534412005612e-07
1.387093803878354e-07
5.242486921316053e-07
1.6442199302726321e-06
2.175954043032396e-06
1.6413258173144565e-06
6.577317116764834e-07
6.425391026539086e-07
2.082394058049735e-06
3.339894476787625e-06
2.962556719051546e-06
1.2407110970550588e-06
1.948382581731739e-07
1.1888414421060065e-06
2.976137799574014e-06
3.6010688354967927e-06
1.8653852131029223e-06
5.989184103916529e-07
1.926814052942967e-06
5.506381057152618e-06
7.305419731279284e-06
5.683152816339711e-06
2.3858117387978475e-06
1.8646517750821999e-06
5.446278301785529e-06
9.134797508306053e-06
8.407091984128518e-06
3.833990807792611e-06
1.1312651978075938e-06
3.452406274145112e-06
8.343010811039687e-06
9.891339699419824e-06
5.843132671000794e-06
1.734921467342618e-06
2.9991147247715084e-06
9.169120223828012e-06
1.2398007325842075e-05
9.263404847730404e-06
2.4756928296513184e-06
9.157860979094374e-07
6.215426277108233e-06
1.1622952289292405e-05
1.0212441244402795e-05
3.525774547843589e-06
9.55649375863762e-07
6.830085155858713e-06
1.5812247161947186e-05
1.6791607075346945e-05
8.5977849674869e-06
9.157226390007338e-07
2.6429429770856266e-06
1.1283259566263596e-05
1.555939253370601e-05
9.950493892686675e-06
1.5122278491350698e-06
1.4848435629799284e-06
1.0673302435421852e-05
1.833194317891107e-05
1.521506363960414e-05
4.8275921681328035e-06
7.448444480139233e-08
6.387936058811003e-06
1.5456161392413742e-05
1.5683001042300478e-05
6.990503818927122e-06
1.6462231936630934e-24
1.5168593201558644e-25
1.0484481050986253e-26
4.084761101068891e-27
1.0517758584956954e-08
1.7426321857424738e-08
1.3820354678689885e-08
4.347039406006871e-09
1.5312671678781939e-09
7.495061323866205e-09
1.149970909884144e-08
7.75041143502505e-09