# vtk DataFile Version 4.1 
COMMENT
ASCII
DATASET STRUCTURED_POINTS 
DIMENSIONS 400 400 1 
ORIGIN 0 0 0
SPACING 0.002506265664160401 0.002506265664160401 0 
POINT_DATA 160000
SCALARS U double 1
LOOKUP_TABLE default
9.730189478480416e-07
6.686735670418528e-08
2.160145031837136e-07
3.029645332824368e-07
2.5315797712342603e-07
1.3532055596684973e-07
5.416192527596842e-08
5.729860303814376e-08
8.869100873947104e-08
8.810080003795248e-08
5.3123925747282124e-08
2.255151238521029e-08
1.5749849094767383e-08
1.9366862476501987e-08
2.6174928863962616e-08
4.219153381027157e-08
5.6986458627304394e-08
5.1324137315123266e-08
2.2054236406202706e-08
7.983776311082083e-09
5.95923392014805e-08
1.6203346838637414e-07
2.3390369064376395e-07
2.0017104605992656e-07
9.278205382329311e-08
2.0271086544675875e-08
4.652663203216816e-08
1.323458510462533e-07
1.761826738565744e-07
1.321773013189375e-07
4.523925478308211e-08
4.483247348376903e-09
2.9238413274715155e-08
6.604533522666588e-08
6.347722836153877e-08
2.7988543137996172e-08
1.5026679013633929e-09
1.2471156246719333e-08
3.79561669301552e-08
4.430490400713486e-08
2.3965231653661748e-08
9.084539781993177e-09
2.0647435467225067e-08
4.9403647901205674e-08
6.338155636697223e-08
5.2176233253566514e-08
3.922517032328167e-08
4.179147909282459e-08
5.7366829481145606e-08
6.324121538139935e-08
5.09318941446362e-08
2.8070273978670834e-08
1.275369976189247e-08
1.1496768420200673e-08
1.5313784765398497e-08
1.2863595303741557e-08
6.6450498959673244e-09
1.168301853024776e-09
3.5308434323552396e-09
9.80811992083636e-09
1.2996303364963404e-08
1.109934195044867e-08
5.2651261901766454e-09
2.168303639060125e-09
1.4443710582089517e-09
2.1073625807966717e-09
1.6630273227763261e-09
1.2095151936738545e-09
4.6159057374872045e-09
1.4849758023141024e-08
2.8154675433200385e-08
3.8969851084571356e-08
4.2898158339104296e-08
4.115658341259199e-08
4.1268765250071574e-08
4.5845362745603644e-08
5.4618550720031735e-08
6.135959958455585e-08
6.572258314176484e-08
5.976567878789208e-08
4.958558463487489e-08
3.8488478210559514e-08
3.0122552388204796e-08
2.4550223372741408e-08
2.2277279724588757e-08
2.1497773915004925e-08
2.2568148388109026e-08
2.55633820725643e-08
2.507982182433816e-08
2.4642526162038616e-08
2.163876334432693e-08
1.861215177401593e-08
1.7570064845578378e-08
1.709256245163695e-08
1.9018115250659286e-08
2.1074910019517402e-08
2.3481339374893264e-08
2.6310881177534775e-08
2.7008701894891352e-08
2.4203919421197284e-08
1.8711065489872928e-08
1.275030424007799e-08
7.704870742419913e-09
7.3408444216014406e-09
1.1979001782622992e-08
1.971067425558921e-08
3.123886958220624e-08
4.0655421396865026e-08
5.075845515684293e-08
6.017454388520008e-08
6.407553358485896e-08
6.728779441659044e-08
6.257553031382814e-08
5.2982709670031723e-08
3.943793906624016e-08
2.5991083572036558e-08
1.5763612865229028e-08
7.56725552904411e-09
3.858091334663593e-09
1.0127403842875916e-09
4.049755297528418e-28
3.4831168560507896e-29
3.0813457239852552e-30
7.292357896679411e-30
1.619668011368021e-11
5.390991520526836e-12
1.469295258932097e-11
9.588943451190892e-11
1.830182632343833e-10
1.924248074523067e-10
1.3899878163200484e-10
1.0220927508348703e-10
1.2461116072292333e-10
1.837580003376623e-10
3.0628945378060734e-10
4.507564075188636e-10
5.050253622504413e-10
3.4875334004261764e-10
1.7175960259774925e-10
1.5554497307554933e-10
3.0589442244146495e-10
5.599026273839882e-10
5.424511889592572e-10
3.8262260115380567e-10
2.530174548286772e-10
1.9213082104013192e-10
2.3077018436438348e-10
3.5224786128589815e-10
5.651524692613703e-10
5.558319240922675e-10
4.139997026311074e-10
5.309631226038995e-10
8.780826470395773e-10
1.2090467409975259e-09
1.3836410186332641e-09
1.5959994853333173e-09
1.9207118911655575e-09
2.3307436887460176e-09
3.0612072888303056e-09
4.2565842695199945e-09
4.942408779192748e-09
4.972665655322472e-09
5.428676013002547e-09
6.449933433099722e-09
7.853305242690635e-09
8.992557492089397e-09
9.840206623508513e-09
1.0469034246620674e-08
1.0523314029004137e-08
1.063914062912477e-08
1.1724330407483906e-08
1.3295934738357506e-08
1.3363944219478914e-08
1.2654853631227887e-08
1.2068760839772538e-08
1.128753550156037e-08
1.119453474803158e-08
1.1547283317450459e-08
1.1066406896126853e-08
9.19261374368762e-09
7.533256432058066e-09
6.694801723454244e-09
5.819045508823038e-09
5.197248576234578e-09
4.466898471561357e-09
3.1801278998593934e-09
1.8618110268157135e-09
1.0185729051947466e-09
7.791264825686227e-10
5.903987118748678e-10
2.2427686183115903e-10
6.674927659637897e-13
2.2552540038792744e-10
5.331063304547883e-10
6.544094626271973e-10
8.032794439709224e-10
1.3045219872452711e-09
2.233182139098152e-09
3.263356520974272e-09
4.0751417107297665e-09
4.15752576842797e-09
3.5375640235846365e-09
3.822342210447451e-09
4.663055428669258e-09
4.740488979484437e-09
3.984267078311366e-09
3.073783603040478e-09
2.442304951818696e-09
2.0231895075053105e-09
1.734394340925337e-09
1.5669510833314167e-09
1.056090525164231e-09
5.847507250289374e-10
4.069769914012896e-10
3.3842401682818507e-10
5.844286313564963e-10
1.1171494743979172e-09
1.5892049173581279e-09
1.952554207556254e-09
2.2138338382422356e-09
2.5018833343830557e-09
3.3748102824291894e-09
5.094609445337765e-09
6.320570799723571e-09
6.233955664773498e-09
6.721402544494397e-09
8.465701421534786e-09
1.0318796498784889e-08
1.1531118016403718e-08
1.1452426092279393e-08
1.0807547902343088e-08
1.1675166165073131e-08
1.3034593096062946e-08
1.2957745588425271e-08
1.1680911504253105e-08
9.778938644124297e-09
8.879183108087509e-09
9.48586318260049e-09
9.12775431915162e-09
7.399999356110009e-09
5.9809238411507156e-09
6.049979923281238e-09
7.799124126071392e-09
8.637961151582919e-09
7.345967947100105e-09
5.723745090263064e-09
6.55222553979974e-09
9.54162111994531e-09
1.0363846600521542e-08
7.04637741299228e-09
4.371292727003311e-09
5.4985933726662406e-09
8.017622914909171e-09
8.30070365449758e-09
5.031376755495913e-09
2.8461389870262564e-09
5.410363512171799e-09
9.119460646900504e-09
8.696108684833416e-09
5.799420299035499e-09
4.431965070291507e-09
7.643853822247271e-09
1.1885142790832211e-08
1.1779521593298216e-08
7.69575397215617e-09
4.73704338288518e-09
6.459899144553944e-09
1.0164755496526462e-08
9.991257388013899e-09
6.1105507702103385e-09
3.2756244673198787e-09
4.829414369525454e-09
8.211403853588594e-09
8.612392337860549e-09
5.254187971664243e-09
3.280125617828043e-09
5.35029466164312e-09
9.135821770600743e-09
9.531972370499818e-09
6.063378702435271e-09
3.302747052293843e-09
3.930399118878164e-09
6.188351767250468e-09
6.60448138689897e-09
3.606807531135766e-09
1.1610258168316986e-09
1.5135412397615905e-09
3.020048981290681e-09
3.013077354632534e-09
1.3666092271523745e-09
5.327774761065251e-10
1.623491428999811e-09
2.851922397820121e-09
2.79087991725286e-09
1.325033496426867e-09
3.464044297553814e-10
9.653832943562733e-10
2.1970175667705228e-09
2.3155022213880414e-09
1.2367116811988227e-09
2.0576341095064211e-10
2.1588726130605334e-10
8.133858414025763e-10
7.954123973335623e-10
2.901573173037922e-10
1.004765138677097e-11
3.694220031942224e-10
8.018053265546627e-10
8.37587171331091e-10
3.0158805236464337e-10
4.536439807654714e-11
6.530919504132824e-10
1.3924270522521245e-09
1.1926773203935919e-09
6.044207024431653e-10
1.8303533380720938e-10
4.389415058433066e-10
6.583333774956223e-10
4.62079712095845e-10
3.75526370723576e-10
6.767005802009561e-10
1.3365945235610716e-09
1.4833686138110953e-09
1.182760165590009e-09
5.689657294268898e-10
1.3173319227807463e-10
2.391208413251685e-11
5.087649063068942e-10
1.2473704861528881e-09
1.5478328453787395e-09
8.1814561550599e-10
7.48286920411987e-11
2.188219219345046e-11
1.5780247470928042e-10
4.363240708288383e-10
1.0424362480586204e-09
1.9987279780916346e-09
2.036942964535047e-09
1.301460896804628e-09
4.121263789622103e-10
1.962783814387726e-11
3.8296590423579583e-10
1.2976663538236786e-09
2.2899888481730495e-09
2.7067892291550243e-09
2.6385887480924476e-09
1.6777115613841878e-09
6.647930555063588e-10
2.350599626456229e-10
2.8820127019655352e-11
5.614352089444916e-11
2.218691424483713e-10
5.027603830737242e-10
7.6479936876857e-10
9.826730202623262e-10
1.2385280299149205e-09
1.3268690437595957e-09
1.1768378108901793e-09
8.362654451509372e-10
3.923429832714081e-10
1.2082163897565264e-10
1.031043640778729e-11
3.9786716499988795e-11
1.1172135773516379e-10
1.5615334855005005e-10
2.667675362752176e-10
2.8919138567542893e-10
3.78758016121164e-10
7.299475069524622e-10
9.591172252223543e-10
1.1530260872755438e-09
1.3363074821868081e-09
1.2199442772936498e-09
1.1800364164017773e-09
9.544985434345468e-10
4.5608797755102573e-10
1.305819659044547e-10
9.614413812561876e-11
6.910817276103629e-10
1.7093382872710582e-09
2.9277198421550826e-09
4.031294978134609e-09
4.304932997320202e-09
3.665246333851453e-09
2.6286675744970306e-09
1.5436553404630972e-09
5.599543931052093e-10
1.4131219703503735e-10
4.0402849103019286e-10
1.0840202975494266e-09
2.2509911716363e-09
3.4764950535088106e-09
4.055739569930225e-09
4.187260821722201e-09
3.7764530951274825e-09
2.743134231849519e-09
1.697840890120029e-09
7.907550723973472e-10
1.757534504865239e-10
5.500538462034266e-31
6.942727150252965e-08
4.2212644043035853e-07
1.3636763557690626e-06
1.912582556193002e-06
1.5981591170475148e-06
8.542641345918206e-07
3.419184165562895e-07
3.617199263480063e-07
5.59896811578727e-07
5.561708874423019e-07
3.3536563702664323e-07
1.4236527535556266e-07
9.942710559206737e-08
1.2226092255562968e-07
1.6523951438282017e-07
2.663506210125442e-07
3.597493922108372e-07
3.2400376597563154e-07
1.392260255141395e-07
5.0400722288134946e-08
3.7620003636939e-07
1.0228998813743154e-06
1.476608874667777e-06
1.2636583127445416e-06
5.857231397602599e-07
1.2796919197232424e-07
2.937176304401899e-07
8.354851419509543e-07
1.1122222956948974e-06
8.34421105626892e-07
2.8559055614814295e-07
2.830225894992995e-08
1.8457896240894377e-07
4.169371071388149e-07
4.0072492434808943e-07
1.7668866648850752e-07
9.486181054795367e-09
7.87290698175446e-08
2.3961320483308495e-07
2.796921000612841e-07
1.5128993324505078e-07
5.734972384336438e-08
1.3034504229549905e-07
3.1187992259166733e-07
4.001209573228351e-07
3.293829561085906e-07
2.476242869460555e-07
2.6382511855249717e-07
3.621506325542498e-07
3.9923499975540133e-07
3.215275769724784e-07
1.7720462450670775e-07
8.051273667990246e-08
7.257786413094014e-08
9.667427831986833e-08
8.12064954313534e-08
4.1949486226531825e-08
7.37536410699292e-09
2.2289835328928708e-08
6.191760753775396e-08
8.20442671672367e-08
7.006895351628268e-08
3.323817609402841e-08
1.3688267968746465e-08
9.118159345817434e-09
1.3303553613809198e-08
1.0498512857441252e-08
7.635539499649808e-09
2.9139717111108485e-08
9.37449273386386e-08
1.7773744182331434e-07
2.460124840167583e-07
2.708114657621957e-07
2.5981709031942633e-07
2.605252822096139e-07
2.894168506114875e-07
3.448010439370172e-07
3.8735656134048243e-07
4.1489960789469967e-07
3.772943105594301e-07
3.1302846964889674e-07
2.4297362876896826e-07
1.9016043766410787e-07
1.5498292313171208e-07
1.4063407402529282e-07
1.3571313757867813e-07
1.4247029665493444e-07
1.613788851769789e-07
1.583262212707273e-07
1.5556562072599856e-07
1.366031887018487e-07
1.1749651495679915e-07
1.1091793211156438e-07
1.0790351078871802e-07
1.2005931877897366e-07
1.330436432276701e-07
1.4823517326564978e-07
1.6609776673531519e-07
1.7050303396876406e-07
1.5279674348326288e-07
1.1812094662035612e-07
8.049130111541182e-08
4.8640021391336985e-08
4.6341962329276825e-08
7.562215154963741e-08
1.2443136938705102e-07
1.9720762820252992e-07
2.5665330834560564e-07
3.204326752721928e-07
3.798754320011878e-07
4.045019609569739e-07
4.2478061854817187e-07
3.950326014272514e-07
3.344741550994456e-07
2.489674731661607e-07
1.6407891880231963e-07
9.951399479657975e-08
4.7771271330999156e-08
2.435571618542563e-08
6.393321264225131e-09
2.556567019573333e-27
2.1988542579187563e-28
1.9452204578019292e-29
4.6035872105541485e-29
1.022479018188716e-10
3.403275040491922e-11
9.275503147792105e-11
6.053397002734904e-10
1.155374637203822e-09
1.2147571404636558e-09
8.774843781256033e-10
6.452361749669586e-10
7.866568727483517e-10
1.1600445180792214e-09
1.9335724221572837e-09
2.845576783435264e-09
3.188170865448429e-09
2.2016423749433805e-09
1.0842999219345953e-09
9.819387074277442e-10
1.9310786317448964e-09
3.5346051456885996e-09
3.4244360894297896e-09
2.415455382329348e-09
1.597272014894729e-09
1.2129012358216454e-09
1.4568273861062844e-09
2.2237029121941653e-09
3.567746833557693e-09
3.508907233055623e-09
2.613535653637674e-09
3.3519131604994846e-09
5.5432414330097735e-09
7.63258220822219e-09
8.73477712918982e-09
1.0075373319344461e-08
1.212524785893371e-08
1.4713734554192404e-08
1.932507280002179e-08
2.6871359279734614e-08
3.120089574262779e-08
3.139190415164397e-08
3.4270648558102845e-08
4.071773695455099e-08
4.957707244770716e-08
5.676904952732273e-08
6.212016744518475e-08
6.608988868544434e-08
6.643255112126084e-08
6.716375200650552e-08
7.401443851347611e-08
8.393580784308031e-08
8.436514439227726e-08
7.988873167440563e-08
7.618879083610636e-08
7.125699918996124e-08
7.066989542245148e-08
7.289675925130644e-08
6.986103805601179e-08
5.803198315496098e-08
4.755663868368132e-08
4.2263564169448994e-08
3.673500925434349e-08
3.280967200817038e-08
2.8199050246680134e-08
2.0075805843793656e-08
1.1753413029029108e-08
6.430141342221706e-09
4.9185417959124e-09
3.727123651394579e-09
1.4158357384232122e-09
4.213810133931511e-12
1.42371762822245e-09
3.3654430014531277e-09
4.131216645288333e-09
5.071016846895931e-09
8.235307182473339e-09
1.4097838970673011e-08
2.0601219189031394e-08
2.5725931895435126e-08
2.6246013602540735e-08
2.2332261699479035e-08
2.4130035804180366e-08
2.9437368047037075e-08
2.9926197735940407e-08
2.5152250102121528e-08
1.940446572076725e-08
1.5418008824807275e-08
1.277217804342806e-08
1.0949045177249324e-08
9.891993877691056e-09
6.666986047197849e-09
3.691468517105102e-09
2.569202031976393e-09
2.136434466997317e-09
3.6894351743481235e-09
7.052444635167139e-09
1.003247994154403e-08
1.2326264982020024e-08
1.397569522563438e-08
1.5794120754425648e-08
2.1304814813480445e-08
3.2161722199626116e-08
3.990108454531414e-08
3.935429250199145e-08
4.243149229539362e-08
5.3443063745258406e-08
6.51414539208887e-08
7.279470944216662e-08
7.229793577772865e-08
6.822688903315255e-08
7.370406993203026e-08
8.22859861268419e-08
8.180085606556931e-08
7.374033964114756e-08
6.173338927232779e-08
5.6053329219035025e-08
5.988323536392921e-08
5.7622532574629774e-08
4.6715401076802936e-08
3.775692977844293e-08
3.8192873407391546e-08
4.92350328782622e-08
5.453052091806692e-08
4.637430659541514e-08
3.613338794850642e-08
4.13634960366159e-08
6.023522923324326e-08
6.542585037417227e-08
4.448302373359906e-08
2.7595501450613307e-08
3.4712029339605717e-08
5.061439226252006e-08
5.2401450564906474e-08
3.1762541020686113e-08
1.796736971192793e-08
3.41550437073644e-08
5.757017551255914e-08
5.4897600049659144e-08
3.661111741296323e-08
2.7978519436775333e-08
4.82548281283156e-08
7.502962981616587e-08
7.436285454125469e-08
4.858246819992431e-08
2.9904446054712165e-08
4.078064942051158e-08
6.416900961968294e-08
6.307373469664679e-08
3.8575250657940664e-08
2.0678665416570646e-08
3.0487574171500115e-08
5.1837710513753975e-08
5.4369107743468134e-08
3.316912429546974e-08
2.070708069624528e-08
3.377583550617007e-08
5.767346152907652e-08
6.017431771439785e-08
3.8277458460983924e-08
2.0849887382185053e-08
2.4812187460354794e-08
3.906639999539349e-08
4.169338158638057e-08
2.2769388524975958e-08
7.329431272049049e-09
9.554823272162075e-09
1.9065244825473597e-08
1.902123369522611e-08
8.627257259011814e-09
3.36336697927587e-09
1.0248927006710762e-08
1.8003879763054387e-08
1.761852514000729e-08
8.36479413672795e-09
2.186813956604253e-09
6.0943610422698234e-09
1.38695359101246e-08
1.4617516807897737e-08
7.807228004130571e-09
1.2989623116052846e-09
1.362873091462863e-09
5.134817448320507e-09
5.021353026499683e-09
1.8317319773850966e-09
6.34297439533349e-11
2.3321214253302333e-09
5.0617109019868926e-09
5.28759784461461e-09
1.903892980011324e-09
2.8638057231773397e-10
4.122899332200215e-09
8.790242415688858e-09
7.529243814242969e-09
3.8156429717040194e-09
1.155482401896466e-09
2.7709905782350016e-09
4.155987898372071e-09
2.9170595889562845e-09
2.3706576418528076e-09
4.2719380761690674e-09
8.437777659218159e-09
9.36434672547779e-09
7.466637881202232e-09
3.5918195353877788e-09
8.316174929551402e-10
1.5095441865281346e-10
3.2117782054000647e-09
7.874515894908214e-09
9.771302495048757e-09
5.164865390972336e-09
4.723854952596568e-10
1.3813992887887052e-10
9.96190072755798e-10
2.7544669921359838e-09
6.580788062481037e-09
1.2617755035733015e-08
1.285900214035263e-08
8.215982847323375e-09
2.6017095625357948e-09
1.2390843391151326e-10
2.4176226178106372e-09
8.19202830506901e-09
1.4456453623267e-08
1.708766965850361e-08
1.6657127347194006e-08
1.0591212878490219e-08
4.196767151798545e-09
1.483908295616526e-09
1.8193836621025646e-10
3.5442801684604207e-10
1.4006360645807482e-09
3.1738722951946913e-09
4.828096265415179e-09
6.203509224768294e-09
7.818694418475293e-09
8.376381749877281e-09
7.429250692121845e-09
5.279253929210263e-09
2.4768191105394935e-09
7.627340290028527e-10
6.508867756440576e-11
2.5116926764208214e-10
7.052849310228467e-10
9.857793164506523e-10
1.6840748021251724e-09
1.825634154769139e-09
2.3910586721260964e-09
4.608080205323433e-09
6.054804020886529e-09
7.2789298386383634e-09
8.4359655978545e-09
7.70137718431933e-09
7.449443145143805e-09
6.0256467788679346e-09
2.8792344123667955e-09
8.243499245154961e-10
6.06947616828286e-10
4.362724715038211e-09
1.0790869001883168e-08
1.848238088748769e-08
2.5449132182283956e-08
2.717657960504111e-08
2.313830640941569e-08
1.6594496043952092e-08
9.744930355235882e-09
3.5349319371263413e-09
8.920887210733747e-10
2.5505884658418e-09
6.843303700236687e-09
1.421026548015947e-08
2.194673985100969e-08
2.5603448264615516e-08
2.6433727800047142e-08
2.3840342748266533e-08
1.7317111756577433e-08
1.0718287168642042e-08
4.9919518344359785e-09
1.1095126546640654e-09
2.009706521942715e-10
2.503849857792237e-07
1.5536621757540984e-06
4.9745788116357635e-06
6.865995685638704e-06
5.560848236241008e-06
2.80463382504284e-06
1.0861745465826088e-06
1.358579821285904e-06
2.1254333740655372e-06
2.0138457124876965e-06
1.0803696932773573e-06
3.6319115605921334e-07
2.567089672311999e-07
3.2899031382776645e-07
3.824155671130609e-07
7.079251887763518e-07
1.1846323010900811e-06
1.2404287164240581e-06
6.114873826174084e-07
1.0513074953858204e-07
1.066863162016954e-06
3.3251272031762115e-06
5.058669202179201e-06
4.432155949492198e-06
2.04887524353521e-06
3.9942986548496184e-07
1.016772735710997e-06
3.002943841876744e-06
4.009542321170009e-06
2.960190692050837e-06
9.691157537034692e-07
1.0726656545935015e-07
7.835862415864362e-07
1.6865358589768542e-06
1.5969104475759257e-06
6.93898121756702e-07
5.61912480673111e-08
3.5080540545193285e-07
9.938027855068554e-07
1.1487523637797754e-06
6.298127890793334e-07
2.22257671516587e-07
4.4056001845704715e-07
1.0737454452068996e-06
1.3817252259231263e-06
1.0918251341442243e-06
7.677841439636309e-07
8.187913739489884e-07
1.1889334156840784e-06
1.3321001670920807e-06
1.0649366830556612e-06
5.604015550707771e-07
2.63506354333008e-07
2.8190253353543396e-07
3.8952484193069846e-07
3.1223735661362183e-07
1.4267125710258747e-07
1.042892371491162e-08
6.753238236287063e-08
2.1628972853552738e-07
2.937456911590539e-07
2.434188052822677e-07
1.1001035876847114e-07
4.676029116917131e-08
4.973577754532102e-08
7.879157746018794e-08
6.334076604063908e-08
2.3696780094445553e-08
4.889079058652246e-08
2.2572353233957502e-07
4.8352830486946e-07
6.996417290916505e-07
7.780323973372731e-07
7.250278812265589e-07
7.11563827674987e-07
7.988723198966478e-07
9.69483988193573e-07
1.1104632484387947e-06
1.2030627166027006e-06
1.0818776509525514e-06
8.721787328494958e-07
6.469841026218386e-07
4.909646582091487e-07
3.8795265437215374e-07
3.5633639697377965e-07
3.564797110967298e-07
3.833018488461082e-07
4.5848370542965154e-07
4.484477412666622e-07
4.326393734913203e-07
3.668926730901502e-07
3.00345037186048e-07
2.676245370666207e-07
2.550036929705104e-07
2.89317816689805e-07
3.234582004675e-07
3.8014284870914744e-07
4.4379189285554294e-07
4.7349991282729935e-07
4.30469930631055e-07
3.371410722706975e-07
2.2205281567552744e-07
1.2342281507563723e-07
1.0998586597566812e-07
1.891106043162681e-07
3.2204917637771595e-07
5.225563212630072e-07
6.779402571532246e-07
8.560163146679684e-07
1.0206794806326181e-06
1.0864462630528774e-06
1.1518723460394957e-06
1.0545126387542501e-06
8.844074304185504e-07
6.361222324102436e-07
4.034916894380228e-07
2.386006508553565e-07
1.1271265481235009e-07
6.038848678248793e-08
1.6588074749267167e-08
4.431804260653488e-27
3.7272714793238863e-28
4.842644344036467e-29
9.48522042174812e-29
3.269021220637661e-10
1.397224327811196e-10
1.751742547877106e-10
1.535106627507444e-09
3.093008171997816e-09
3.2581278269067104e-09
2.218985548310005e-09
1.4159833097982295e-09
1.6561770410896086e-09
2.66174854016855e-09
4.940547231464108e-09
7.46486578262092e-09
8.171640039036124e-09
5.220819469912958e-09
2.357631453004112e-09
2.0961771222460804e-09
4.589495406119887e-09
8.9859519963962e-09
8.99014708498395e-09
6.358486330452671e-09
3.9402316987417825e-09
2.845560588006721e-09
3.725739929233797e-09
6.329137237718091e-09
1.050510253135589e-08
1.0361111396594028e-08
7.823187820466078e-09
9.920720197928905e-09
1.6385431130310873e-08
2.3575876228186724e-08
2.7473867790494258e-08
3.0756791907953196e-08
3.5462325195976714e-08
4.269587357592879e-08
5.79762324115235e-08
8.075096268299787e-08
9.226407947615333e-08
9.2321367549061e-08
9.990421146171802e-08
1.1753614830839743e-07
1.438016090849236e-07
1.6647414023891244e-07
1.8195308911270599e-07
1.923913790129091e-07
1.915578157486493e-07
1.926931662921919e-07
2.1318743233970838e-07
2.4276031354854056e-07
2.4501211521831797e-07
2.3096346836868737e-07
2.169981313358232e-07
2.0106499537713164e-07
2.016147191365381e-07
2.0941387748200159e-07
1.9788524422089816e-07
1.6290336504301626e-07
1.3287308139171688e-07
1.169346662151269e-07
1.0154915835738851e-07
9.09665884494158e-08
7.744963970424671e-08
5.3999886997745934e-08
3.1503252031220445e-08
1.7342714159217e-08
1.3712504869704026e-08
1.1845483342646592e-08
5.263171970234144e-09
6.201319312769473e-10
7.138841086752443e-09
1.622606330539269e-08
1.962486113805446e-08
2.0681067124876026e-08
2.935646606153497e-08
4.851914192835665e-08
7.128558902191504e-08
8.69591269520731e-08
8.447261737198555e-08
6.863070608021289e-08
7.476673990714415e-08
9.567539532605323e-08
9.870894449172863e-08
8.001176452848524e-08
5.9474071231132256e-08
4.6647536319289334e-08
3.88995262754169e-08
3.307804045940422e-08
2.9223037065091168e-08
1.8759202552312033e-08
9.146048560258114e-09
5.635810419443194e-09
4.321326120848487e-09
9.163154921556647e-09
2.1242414454256847e-08
3.2608352890336444e-08
4.24680547175992e-08
4.9667153682904905e-08
5.384533872662505e-08
7.172826897238912e-08
1.10920425875523e-07
1.3761552812311514e-07
1.354036717534989e-07
1.44325359785033e-07
1.7930740467486835e-07
2.2197574367164326e-07
2.521703758470174e-07
2.4975884336401375e-07
2.3428584882338277e-07
2.520592437541134e-07
2.8626838321360386e-07
2.951664011481605e-07
2.6721856200271395e-07
2.2066939558812299e-07
2.0802446211164293e-07
2.3306032536068078e-07
2.2836937689306086e-07
1.8602577142659077e-07
1.4862910103748618e-07
1.522123773411835e-07
1.953450633315566e-07
2.1031277654624937e-07
1.7377242042880364e-07
1.3334411899561463e-07
1.5249701850586777e-07
2.209851972423239e-07
2.3977607702968565e-07
1.6525001549592088e-07
1.0446922200755808e-07
1.329108360365624e-07
2.028556055825531e-07
2.1690766480237975e-07
1.3388628459249733e-07
7.590656655921287e-08
1.388391032949882e-07
2.3635546541611446e-07
2.3265129380940895e-07
1.5257710102282068e-07
1.0515855634486266e-07
1.839245440296423e-07
2.929793643564675e-07
2.9127333256571997e-07
1.865569853429492e-07
1.1016557507335325e-07
1.6025805791498648e-07
2.5756319233576674e-07
2.507201074628527e-07
1.502547757322865e-07
7.88548103928362e-08
1.205683088250678e-07
2.096916180312353e-07
2.175766727574811e-07
1.2836669913600265e-07
7.613935654921501e-08
1.2511803983757549e-07
2.145680082480925e-07
2.2246137681839236e-07
1.3869171087428379e-07
7.300386158688214e-08
9.090773942970687e-08
1.5014815207892028e-07
1.6193309680224404e-07
9.009675549531954e-08
3.0507693238674e-08
3.907082343796152e-08
7.756392520026502e-08
7.83121153012843e-08
3.6764197379186135e-08
1.1699736230434882e-08
3.35843547747724e-08
6.624936431691393e-08
6.794950931687928e-08
3.145475938025099e-08
6.184571510579016e-09
2.0632910010961954e-08
5.266140025782029e-08
5.767433516632806e-08
3.021637739247287e-08
4.144515138647746e-09
6.208889981797347e-09
2.2395415122212527e-08
2.2590331206494753e-08
8.545788399209475e-09
1.0641521058154259e-10
9.013609537924583e-09
2.0295618829940665e-08
2.040277899782476e-08
6.542045990498343e-09
1.4407772456828979e-09
1.8481022075654245e-08
3.439578166080942e-08
2.763411517908653e-08
1.3256576614131646e-08
3.870710466519894e-09
1.1634956692361113e-08
1.7483285611461137e-08
1.3776147575222028e-08
1.0147006613134841e-08
1.423960560327296e-08
2.8175632328053408e-08
3.254489961016794e-08
2.6926587263008224e-08
1.3896921868954165e-08
3.4140007745209733e-09
3.9563315090196945e-10
1.0708373435815399e-08
2.70773011607724e-08
3.3730645284244096e-08
1.6618559919898334e-08
1.1642285808010379e-09
8.20953224731576e-10
4.165417072227803e-09
9.856965430064891e-09
2.4089661026859802e-08
4.689952863129425e-08
4.913520858035749e-08
3.2872221220484263e-08
1.1289464130812779e-08
8.149256603648145e-10
7.891533215735439e-09
2.9582693530381657e-08
5.549476881437642e-08
6.874602513257034e-08
6.924880360657947e-08
4.686391241257592e-08
2.1360731151549033e-08
8.845989685534896e-09
1.6147602069452681e-09
2.68694952032682e-10
3.896778724366226e-09
1.1948194055111586e-08
1.9918042986301797e-08
2.8235697825835367e-08
3.637451419582917e-08
3.767643658812941e-08
3.506338899015533e-08
2.7459067585311118e-08
1.4582755687585308e-08
5.9872709952122295e-09
1.3299003118420407e-09
1.296632619399511e-10
1.3892698365946784e-09
3.1481339236126944e-09
7.555922355447013e-09
1.0751843851454584e-08
1.5902018419673235e-08
2.775614185446883e-08
3.520060594605163e-08
4.035465971382225e-08
4.292948142758454e-08
3.712090983767851e-08
3.365542089388019e-08
2.4336748045624405e-08
1.0562904513701687e-08
3.797542827031562e-09
5.189742627049179e-09
2.331488893213323e-08
5.124056929339581e-08
8.216964068644616e-08
1.0809285292267121e-07
1.1265662053759449e-07
9.590707969258889e-08
6.927487205463598e-08
4.1125676206793164e-08
1.598607020161059e-08
4.087513482409895e-09
9.336241757195945e-09
2.6746823398360784e-08
5.894033434022877e-08
9.5272332352012e-08
1.1620913595660979e-07
1.252081071035524e-07
1.1681880301789473e-07
8.702663031610712e-08
5.50422905790778e-08
2.636518001805903e-08
5.772201312564849e-09
7.258175540179842e-10
4.2631600188969696e-07
2.698804549132427e-06
8.534079400015336e-06
1.1462704450327855e-05
8.822473663206915e-06
4.0276700971394545e-06
1.5156811557732721e-06
2.510126137345455e-06
3.925008833131065e-06
3.399361845415986e-06
1.505254143864059e-06
3.669347797101283e-07
4.384942052730476e-07
5.879296252001137e-07
3.8575652342682056e-07
7.421519694645587e-07
1.784247486913636e-06
2.335812847464891e-06
1.4034263030372866e-06
1.283132236170324e-07
1.1846798545026377e-06
4.758714901590479e-06
7.874929551173186e-06
7.177382917703855e-06
3.3530098741005e-06
5.50734336778325e-07
1.5679599986132546e-06
4.96426234020755e-06
6.626433110874443e-06
4.789659652622158e-06
1.438969051294902e-06
1.9478223615873375e-07
1.6530785560678025e-06
3.369917232244793e-06
3.1013547103281976e-06
1.3493486256340957e-06
1.732293500281002e-07
8.015125808471411e-07
2.069161288798559e-06
2.3572321175733193e-06
1.311998351138059e-06
4.245380368076821e-07
6.503617282170366e-07
1.6544695736387753e-06
2.135345810849947e-06
1.5932149128985647e-06
1.012707546146507e-06
1.0979132997418075e-06
1.7556630662767534e-06
2.014449716312719e-06
1.5905874573061e-06
8.195884563726249e-07
4.363042380142037e-07
5.924481444423735e-07
8.117132036729593e-07
6.246450556889512e-07
2.643387092572738e-07
1.135353591589855e-08
1.0262976414145576e-07
3.564609319451715e-07
4.839579376516871e-07
3.8578766705006925e-07
1.5557787220012326e-07
7.835168320405548e-08
1.3575119591697069e-07
2.28945166920819e-07
1.9977051594034706e-07
7.595065735965015e-08
9.960576119391623e-09
1.7610463242355363e-07
5.133841848030801e-07
8.12955255383637e-07
9.024531054419559e-07
7.950816455740492e-07
7.383894140226339e-07
8.33530989638907e-07
1.076871764225029e-06
1.2983277080504546e-06
1.4329695151587938e-06
1.2384535572589872e-06
9.51579972413092e-07
6.392223335535539e-07
4.464671772172652e-07
3.3536639489109053e-07
3.195467557733368e-07
3.2869780801067734e-07
3.809258938884699e-07
4.980236826901262e-07
4.911811592376207e-07
4.6101720643172783e-07
3.6034281799273935e-07
2.588855399470194e-07
1.9900347205015308e-07
1.7982604149604118e-07
2.1679405885483608e-07
2.66343876701168e-07
3.4646302699380593e-07
4.538072997081261e-07
5.210856185921278e-07
4.929774102553458e-07
3.9371791839007437e-07
2.511944552306238e-07
1.1718251431796539e-07
9.390591610641764e-08
1.8186991097520782e-07
3.2299212904971327e-07
5.390678041203678e-07
6.785749934743016e-07
8.571875731972667e-07
1.0295139257617654e-06
1.0975792772326831e-06
1.1754108668247738e-06
1.0676469206733002e-06
8.602193820414323e-07
5.876415510208375e-07
3.5033557657282937e-07
2.1234272377897492e-07
9.99155158863836e-08
6.55577586973243e-08
1.961197265135673e-08
5.151327480487201e-27
4.223869048367472e-28
8.7748902904935e-29
1.8041740390579148e-28
7.820942226145261e-10
4.732127817733795e-10
1.300271556919726e-10
1.7831838385386169e-09
3.729425088659435e-09
3.6507345902724276e-09
1.8588393624270947e-09
7.109612258806911e-10
8.203993912962751e-10