# vtk DataFile Version 4.1 
COMMENT
ASCII
DATASET STRUCTURED_POINTS 
DIMENSIONS 400 400 1 
ORIGIN 0 0 0
SPACING 0.002506265664160401 0.002506265664160401 0 
POINT_DATA 160000
SCALARS U double 1
LOOKUP_TABLE default
7.821594756508682e-07
3.0660174850818815e-11
1.586845230023522e-10
3.667549468466589e-10
6.131124298409826e-10
7.231054223634539e-10
5.536096904800921e-10
4.0097460908471945e-10
3.574084850536308e-10
2.6924349922739575e-10
2.0771403522422194e-10
1.1498874605525067e-10
1.825378298865584e-10
4.1502773702623723e-10
5.060850778083098e-10
3.8245871453475434e-10
1.7013413577693345e-10
4.7470710678926306e-11
1.1174440008248596e-11
1.4197690050817428e-10
2.904666695894979e-10
4.1331034630855706e-10
5.461902173077203e-10
7.809420723154773e-10
1.1270462283405784e-09
1.4529911207479592e-09
1.6725041663623353e-09
1.5777549537461004e-09
1.3736759485269203e-09
1.315233650955826e-09
1.314840038644612e-09
1.3263438882971269e-09
1.524677013486784e-09
1.8080393544900093e-09
1.879843399574198e-09
1.468779953140115e-09
8.714862355046207e-10
3.762604463154519e-10
4.809361106879664e-10
1.4643921096274402e-09
2.992746526826667e-09
4.141191301753912e-09
5.04077947771559e-09
5.951103911058926e-09
6.7878581619025736e-09
7.686065515091291e-09
8.633105091779564e-09
8.591453754831283e-09
6.8676205576289764e-09
4.640778473714045e-09
2.707137794557289e-09
1.2282306155962603e-09
1.8193762345438939e-10
1.0954081060089217e-10
8.125940804220011e-10
1.5937228927536065e-09
2.2613778286343194e-09
2.5049745601988918e-09
2.0884060428181224e-09
1.2794655834738123e-09
7.530786630659937e-10
4.837612356726328e-10
3.472545394768237e-10
6.031234131463637e-10
1.9335303016056487e-09
4.283266282573168e-09
7.3540294039722945e-09
9.820505425078445e-09
9.999145809901847e-09
8.280366266535202e-09
6.467407709707555e-09
6.101739362266214e-09
7.520817822861575e-09
9.627585143476617e-09
1.0948326133679054e-08
1.0576411910838032e-08
9.90652968277117e-09
1.0021233653603157e-08
1.0846133684353635e-08
1.0618150405331245e-08
8.68238719496263e-09
4.84692029004803e-09
1.3898379074896138e-09
2.813085812915692e-10
9.293281054134009e-10
2.0647808096415045e-09
3.1523481729343902e-09
4.349861265440246e-09
5.879870953915371e-09
7.1455666632090345e-09
6.7441458346664786e-09
4.893142865570613e-09
4.622407129217318e-09
8.511487150133644e-09
1.5443916793809985e-08
2.1205555730418747e-08
2.1085113174355647e-08
1.572849902044809e-08
8.772314488482226e-09
3.650495895444121e-09
1.2343514506162823e-09
4.113031954986396e-10
4.664506563211225e-10
2.465611491561467e-09
6.792842969150964e-09
1.1306552991253829e-08
1.1961594535512825e-08
8.228278833636862e-09
2.7482434665714302e-09
6.006399845292093e-10
3.9296113294537266e-09
9.729202217889267e-09
1.2685482403217857e-08
1.0455366330702598e-08
5.120096435918541e-09
1.921054869329814e-09
2.1601458150016365e-09
3.77513216260389e-09
3.695627779465607e-09
1.6247229546130352e-09
6.520128350609165e-28
6.06201237901422e-29
4.972421000463992e-30
4.366428328016226e-31
2.960779812371274e-12
9.284964616872566e-12
1.8056995465776582e-11
2.864383138584366e-11
4.017740471388607e-11
5.3355552645493e-11
6.867269234499873e-11
8.820702686892542e-11
1.1313448548785085e-10
1.4401921764038394e-10
1.8266719277024508e-10
2.253341661106795e-10
2.7567608382390324e-10
3.2363658090466525e-10
3.771862608103929e-10
4.245745897452208e-10
4.731546547217237e-10
5.191991419434143e-10
5.628484793273917e-10
6.149931314169556e-10
6.623042922756873e-10
7.257506437466494e-10
7.856380268314607e-10
8.57446927065456e-10
9.255231419407838e-10
9.96265803529295e-10
1.0589448169930914e-09
1.1104466658853334e-09
1.1538404519566694e-09
1.1783878854962646e-09
1.1963306177924516e-09
1.1932766967493982e-09
1.195469452000918e-09
1.1796801151219574e-09
1.169510124163178e-09
1.1727063290393304e-09
1.167530922794181e-09
1.1867232820313127e-09
1.2252453224502429e-09
1.2759137014454749e-09
1.335982252045763e-09
1.4499454676314436e-09
1.5739452432736173e-09
1.6718005172520227e-09
1.837694857612034e-09
2.0114305613758445e-09
2.1477669373245996e-09
2.2574168829165723e-09
2.3702124241713584e-09
2.488443761210916e-09
2.456957695334349e-09
2.4143327376675398e-09
2.394951996280961e-09
2.1615368370222974e-09
1.9085471695893975e-09
1.8174050003250103e-09
1.6314639677975193e-09
1.1873668809439026e-09
8.367197169238208e-10
8.508854608519652e-10
8.6850154869618e-10
6.284923049098842e-10
3.963817963051805e-10
4.1247532905345726e-10
5.561641426780911e-10
5.701891683397432e-10
4.793728401803175e-10
5.784789956581715e-10
7.625255930392447e-10
6.660542654932381e-10
5.211351546951548e-10
6.887244711378752e-10
9.889116575669676e-10
1.0790730858429515e-09
8.688632187557095e-10
5.636287020200591e-10
3.313448318883222e-10
1.7512491195229572e-10
9.306303970848316e-11
5.072727965180224e-11
2.5167978693326874e-11
2.6628728422937407e-11
4.905418899592566e-11
6.790220395043465e-11
8.7483345942013e-11
1.7590012114956836e-10
3.181194241565194e-10
4.3414942211356495e-10
4.889070381083575e-10
4.6246255206616607e-10
3.887158023259384e-10
3.0829565617926827e-10
2.3233137100038424e-10
1.7189038780441423e-10
1.05011434584727e-10
5.409748706380722e-11
4.6483521963521976e-11
3.316028928458737e-11
1.8680747524995827e-11
3.177103870849962e-11
5.641681636676207e-11
1.0238178689185357e-10
1.413006004374716e-10
1.3336305693981932e-10
1.170740567667758e-10
1.3339672509405523e-10
1.7816681829864413e-10
1.7799723888320512e-10
1.1762489759853321e-10
8.789349160655982e-11
9.508911822645627e-11
8.903879734335514e-11
7.805963001095714e-11
7.193458976528197e-11
6.651700724040363e-11
8.173994971140986e-11
1.0182775226694311e-10
9.307725827116557e-11
7.302747248383364e-11
6.904494907926163e-11
7.783602297714655e-11
8.297326223098801e-11
8.788488692701906e-11
9.647721083734416e-11
9.376465689059225e-11
6.803249097258897e-11
5.450635726478469e-11
5.478280365931216e-11
4.5553035727918876e-11
4.744143435165865e-11
5.323456348727187e-11
4.1371844557055885e-11
2.2357571042142876e-11
3.261510799801051e-11
6.073981591896915e-11
5.76652147427337e-11
2.6881185690275944e-11
1.8872744887446568e-11
4.264260851976565e-11
8.256670587648423e-11
7.493416635256837e-11
4.7767505201983386e-11
6.804248389824724e-11
1.0075178748336107e-10
1.0273572199229715e-10
1.0096003682819445e-10
1.200496201786003e-10
1.3125945273555587e-10
1.1726118847122945e-10
1.026351452400007e-10
8.843481651753358e-11
9.109461035008775e-11
1.4120380603230924e-10
1.666934793461481e-10
1.2453072041479167e-10
7.886795779979008e-11
8.724578217443285e-11
1.407536274363291e-10
1.878689019011363e-10
1.9265896643832122e-10
1.7183824897285577e-10
1.5179368978550315e-10
1.3868065789036097e-10
1.2958369687209026e-10
1.2452311404828928e-10
1.3370512716827933e-10
1.4843013921996302e-10
1.587104459816719e-10
1.4595141646682472e-10
1.432865385075928e-10
1.8145704318499602e-10
2.2165491140088505e-10
2.4299613133810616e-10
2.8144711628458597e-10
3.3908810799561293e-10
3.5562918900621503e-10
3.2753560975778195e-10
3.4104915734251587e-10
4.046246471292164e-10
4.5101484402046844e-10
4.6402957431062387e-10
4.721286639542113e-10
5.333740938829822e-10
6.466988079339894e-10
7.405847650719279e-10
6.782474362523988e-10
4.926175639073588e-10
4.1503524198959094e-10
5.208211373652773e-10
6.350062147027598e-10
5.893389633858515e-10
4.916223033001156e-10
3.8078747829368235e-10
2.7123209243404115e-10
2.688473763303185e-10
3.788739829039619e-10
4.5104882674714835e-10
3.776792923645404e-10
3.8106035071043977e-10
6.194693738628993e-10
8.490337274841685e-10
7.574065572428738e-10
6.273435941744705e-10
9.241019392243361e-10
1.4600621081292067e-09
1.506728169564122e-09
1.0109851622021682e-09
6.695793282188835e-10
8.020499524418108e-10
9.999338668060556e-10
1.0339925538898016e-09
9.493805944367834e-10
6.795251980528098e-10
3.261922387265956e-10
1.462806112157473e-10
3.7116739544176883e-10
9.627653486765854e-10
1.5471235357781857e-09
1.5759841338267304e-09
1.350009326846045e-09
1.6263539365830857e-09
2.307408874338498e-09
3.0245138320514656e-09
3.6955130988029964e-09
4.197066473773407e-09
4.213057314193088e-09
3.559175816481947e-09
2.542912538286266e-09
1.8746524900866253e-09
1.9724185280003736e-09
2.3863165436684645e-09
2.221513818067986e-09
1.4502739454166026e-09
6.825524065544527e-10
2.74261683630678e-10
2.7332659111869114e-10
7.42288725400258e-10
1.8393356678416717e-09
3.0183962412963695e-09
3.1070170050663425e-09
1.797090412424074e-09
5.398235659020263e-10
8.138953751798509e-10
2.6099078393078806e-09
4.672101451331701e-09
5.127378420105576e-09
3.5989206463706756e-09
1.5549985427946055e-09
5.197379708415892e-10
8.408260326683568e-10
1.7908982258762681e-09
2.74399687396266e-09
2.92054680144474e-09
1.8578585174523392e-09
5.212659527335635e-10
5.206052422741169e-10
2.326989700924275e-09
4.165050366094624e-09
4.451722786280362e-09
3.4038756012479793e-09
1.870212870889367e-09
9.292770030981259e-10
7.469780142313011e-10
4.984012755715162e-10
2.3123545835071752e-10
7.924204132597585e-10
2.4786319453010028e-09
3.923449378837292e-09
3.5424942692948505e-09
2.3196516210932194e-09
2.712321432756564e-09
5.0896369089759755e-09
6.738827849422207e-09
5.187988967647842e-09
1.734754300297411e-09
4.421597635665012e-31
2.3002247222899464e-11
1.935543905227896e-10
1.001758348886246e-09
2.315284585085377e-09
3.870512913159356e-09
4.564886860243879e-09
3.4948785109593968e-09
2.531309637147551e-09
2.2562813757202555e-09
1.6997052902909325e-09
1.3112763931214118e-09
7.259116025266072e-10
1.1523417130839321e-09
2.6200255243495655e-09
3.194860735937711e-09
2.4144207837068794e-09
1.0740385244915336e-09
2.9967749753057514e-10
7.05430394886437e-11
8.962849227012968e-10
1.8336848851362085e-09
2.6091838212194478e-09
3.44804017377228e-09
4.9300034189658125e-09
7.114921779764198e-09
9.172576874716862e-09
1.0558339153060723e-08
9.96019755113963e-09
8.6718687119895e-09
8.30292876490297e-09
8.300443932661472e-09
8.37306649985139e-09
9.62512221555906e-09
1.1413958237429476e-08
1.186724946133683e-08
9.272250077678017e-09
5.501598995531896e-09
2.3752917822148407e-09
3.036098007840428e-09
9.244550092895236e-09
1.8892887363088895e-08
2.6142895868966297e-08
3.1821899396081556e-08
3.756867976283043e-08
4.2851019469874554e-08
4.852130601114284e-08
5.449986513413375e-08
5.423692471788661e-08
4.3354550906553525e-08
2.929673602324597e-08
1.7089870114447546e-08
7.7536879479608e-09
1.1485526743478005e-09
6.915193711839442e-10
5.129819146295789e-09
1.0061001434925063e-08
1.4275835330122907e-08
1.5813635330962277e-08
1.318388302573484e-08
8.077128796855031e-09
4.754104709274444e-09
3.05393271841264e-09
2.192180607962632e-09
3.807453323719431e-09
1.2206169107174293e-08
2.703979996213633e-08
4.6425197706741633e-08
6.199579589566636e-08
6.312353345670402e-08
5.227306281920587e-08
4.082805018580657e-08
3.8519625186051766e-08
4.7478115079895883e-08
6.077791088011727e-08
6.911560688612269e-08
6.676775234585972e-08
6.253885779433151e-08
6.326297164146232e-08
6.847047693035908e-08
6.703124297832612e-08
5.481097775797531e-08
3.059808716739052e-08
8.773897422911702e-09
1.7758708574118312e-09
5.866748507280144e-09
1.3034739466355014e-08
1.990043541162814e-08
2.7460206935789598e-08
3.711899375574986e-08
4.510919481597319e-08
4.257506824331822e-08
3.088988532174541e-08
2.9180759698764784e-08
5.3732104131906986e-08
9.749578783732006e-08
1.3386839556750392e-07
1.3310805464820942e-07
9.929232486617148e-08
5.537867910257756e-08
2.3045188476143398e-08
7.79232812198314e-09
2.5965128937511222e-09
2.944652890352937e-09
1.5565140506771146e-08
4.288248802259906e-08
7.137705455966482e-08
7.551226146840071e-08
5.194424045020148e-08
1.734936580657711e-08
3.791775705612587e-09
2.4807214230337376e-08
6.141940855585951e-08
8.008208782204096e-08
6.600360460036943e-08
3.232261883352091e-08
1.2127413043244246e-08
1.3636768501723994e-08
2.3832003843130794e-08
2.333010121220664e-08
1.025670149562482e-08
4.116086992892067e-27
3.826883300798814e-28
3.139035967180156e-29
2.756479302230898e-30
1.869108492838215e-11
5.86149842976659e-11
1.1399187281405282e-10
1.8082543081049834e-10
2.5363564037130693e-10
3.3682787275524e-10
4.335233304137626e-10
5.568414860160601e-10
7.142058547368509e-10
9.09177851384923e-10
1.1531583670733524e-09
1.4225103867712878e-09
1.7403135059035724e-09
2.0430829723793645e-09
2.381136349676617e-09
2.6802937801055937e-09
2.9869745121573686e-09
3.2776484141977777e-09
3.55320199258364e-09
3.882385580196118e-09
4.181055856849576e-09
4.581585858704045e-09
4.9596484754172666e-09
5.4129703493638384e-09
5.842728181581179e-09
6.2893190054870174e-09
6.685004884924556e-09
7.010130524997948e-09
7.284070835396717e-09
7.43903614661144e-09
7.55230668830926e-09
7.533027612796186e-09
7.546870241167965e-09
7.447193853435799e-09
7.382991792905265e-09
7.403169090973519e-09
7.370497307255334e-09
7.491656609604781e-09
7.734842112990169e-09
8.054706147129488e-09
8.433912454908117e-09
9.153349993735935e-09
9.936147258140402e-09
1.055389709180859e-08
1.1601170243243492e-08
1.2697945079579896e-08
1.3558621976604911e-08
1.4250830305264995e-08
1.4962896441465624e-08
1.5709278172578782e-08
1.5510510020722123e-08
1.5241423241458732e-08
1.511907470283457e-08
1.364554987432617e-08
1.2048453278276249e-08
1.1473082553590958e-08
1.0299256787784027e-08
7.495719580408885e-09
5.282121698117649e-09
5.371548517946783e-09
5.482756988305257e-09
3.96760441246626e-09
2.50231570339948e-09
2.6039124469799577e-09
3.511004493303234e-09
3.599542973831015e-09
3.026229249041677e-09
3.6518757632545774e-09
4.813742163469694e-09
4.204729034974994e-09
3.289870254746004e-09
4.347843608128082e-09
6.242893071959898e-09
6.812072484130024e-09
5.4850401725428955e-09
3.5581274546361583e-09
2.0917443328705476e-09
1.1055447584108783e-09
5.874969734718447e-10
3.2023586765753455e-10
1.5888274611543318e-10
1.6810430225452175e-10
3.0967382605916735e-10
4.286593199395775e-10
5.522729660574152e-10
1.1104385708054855e-09
2.008253754444308e-09
2.7407386683826488e-09
3.0864176164617717e-09
2.919476416566819e-09
2.4539211068382038e-09
1.946237362407219e-09
1.4666829896471552e-09
1.085125554896202e-09
6.629259069090991e-10
3.415116250444365e-10
2.934454812074212e-10
2.0933734439763936e-10
1.179295525646395e-10
2.0056715473478046e-10
3.56153301807186e-10
6.463252234831147e-10
8.920155129985709e-10
8.419066534955994e-10
7.390759450583693e-10
8.421191969368833e-10
1.12474798643419e-09
1.1236774497996074e-09
7.425533440616244e-10
5.54862171582602e-10
6.002873895280378e-10
5.620923636779268e-10
4.927820596170463e-10
4.541153384568585e-10
4.199147218976955e-10
5.160155225707357e-10
6.428276624067399e-10
5.875867337307957e-10
4.610145896689404e-10
4.3587334719184176e-10
4.913704524309684e-10
5.238012920326704e-10
5.54807851164918e-10
6.090502690809706e-10
5.919262073794854e-10
4.2948180791587936e-10
3.4409277870511133e-10
3.45837955099745e-10
2.875714215486518e-10
2.994926792212012e-10
3.3606408119523427e-10
2.6117601080251784e-10
1.4114094448865694e-10
2.0589567349519843e-10
3.834439336326399e-10
3.640343066601109e-10
1.6969803786596284e-10
1.1914161129072162e-10
2.691982072021593e-10
5.21234745436246e-10
4.730513432579905e-10
3.015511294749566e-10
4.2954489218218674e-10
6.3603521230091e-10
6.485595777548793e-10
6.373498680460947e-10
7.578603572621443e-10
8.286268261091448e-10
7.402572874081519e-10
6.479246475209121e-10
5.582794976000865e-10
5.750704903677794e-10
8.914044603157868e-10
1.0523180300162329e-09
7.861490617234754e-10
4.978849461227969e-10
5.50773251510189e-10
8.88562531194531e-10
1.1859961980839474e-09
1.2162353609905768e-09
1.0847964080529764e-09
9.58257258955384e-10
8.754760971153252e-10
8.180479593415465e-10
7.861010435487706e-10
8.440661061049768e-10
9.37023525525181e-10
1.0019219978702184e-09
9.213756150323995e-10
9.04552526719093e-10
1.1455188227278306e-09
1.39928364698923e-09
1.5340084761221378e-09
1.7767454139422455e-09
2.1406268032050677e-09
2.2450488708929724e-09
2.067697122721551e-09
2.1530066970892937e-09
2.5543519352598456e-09
2.84720826531038e-09
2.9293688596770555e-09
2.9804975426471136e-09
3.367133363213964e-09
4.082540110436945e-09
4.675232073248665e-09
4.281703212268918e-09
3.1098417672710624e-09
2.6200729023770848e-09
3.287887897072124e-09
4.008726025308167e-09
3.720433573014497e-09
3.1035587939617573e-09
2.403870448829985e-09
1.7122590656031347e-09
1.6972046089905493e-09
2.3917907579695253e-09
2.8474227946137135e-09
2.3842488049198068e-09
2.4055930630868488e-09
3.910643617949407e-09
5.359858724096666e-09
4.781426240339712e-09
3.960352724980401e-09
5.833756281488314e-09
9.217215258536619e-09
9.511813091819779e-09
6.382240735734036e-09
4.226982377323387e-09
5.063255198936385e-09
6.312475094954443e-09
6.527483928158302e-09
5.993337716580823e-09
4.289769585266306e-09
2.059216565697581e-09
9.234537861224546e-10
2.34313989911066e-09
6.077834232396128e-09
9.766824699729746e-09
9.949018555198253e-09
8.522463871427962e-09
1.02669977096126e-08
1.4566424377307048e-08
1.9093430948742095e-08
2.3329377245501817e-08
2.6495629828189e-08
2.6596578286129587e-08
2.2468694626645853e-08
1.6053133711584598e-08
1.1834479807314481e-08
1.2451666303291627e-08
1.5064560018054314e-08
1.4024178113342391e-08
9.155423638710763e-09
4.308880027374736e-09
1.7313845494091274e-09
1.7254814108223236e-09
4.685988991773417e-09
1.1611528501978357e-08
1.905481125541576e-08
1.9614264618047295e-08
1.1344838742229183e-08
3.4078481873111435e-09
5.138034080325737e-09
1.647606785074798e-08
2.949447461644195e-08
3.2368589217511736e-08
2.2719599468610224e-08
9.816538773143948e-09
3.281049983154569e-09
5.3080444283399965e-09
1.1305748133676044e-08
1.7322557523578458e-08
1.843709825196324e-08
1.1728461261970183e-08
3.29069596871303e-09
3.286524974551633e-09
1.4690036032301943e-08
2.6293515579368492e-08
2.8103247775571596e-08
2.148830104918177e-08
1.180645296819632e-08
5.866425903852882e-09
4.715591968471827e-09
3.146353717759356e-09
1.459764610805399e-09
5.00246495242063e-09
1.564733723265898e-08
2.4768314497971257e-08
2.236338581107368e-08
1.4643711522535832e-08
1.7122593865607906e-08
3.213033111169065e-08
4.254149637369346e-08
3.275121709376739e-08
1.0951317562100811e-08
1.772507321621683e-09
4.9800432003544665e-11
4.3481260305049127e-10
2.4662678429646086e-09
6.010273149525137e-09
9.868453288911469e-09
1.2699771796427823e-08
9.620379923450018e-09
5.920416721082628e-09
5.500682721745974e-09
4.5572910953183935e-09
3.810679389045843e-09
1.8443290917833e-09
2.612998039211071e-09
7.778929916428833e-09
1.0610889703053302e-08
8.359106925959234e-09
3.426150008812001e-09
5.781046315273215e-10
3.366629058797733e-10
2.9787623995088773e-09
5.7944410574212035e-09
7.813548778926962e-09
8.305138762904746e-09
1.1675370433570982e-08
1.8287109404072874e-08
2.3514257029815587e-08
2.617305841044277e-08
2.5327532870277315e-08
2.2680489589856055e-08
2.140036997900779e-08
2.1613238694326462e-08
2.4171245494925822e-08
2.9077407881280802e-08
3.631524894729569e-08
3.9116405105521145e-08
3.148602136145994e-08
1.798211393880193e-08
5.226993504122561e-09
3.8684933868068915e-09
2.0621682943712407e-08
4.793985247525273e-08
7.15096958049268e-08
8.610986859937614e-08
1.0194700338872206e-07
1.2237137566303205e-07
1.448712211365649e-07
1.672572515051806e-07
1.6852954710457703e-07
1.410727661511653e-07
9.847656929486924e-08
5.874753411178589e-08
2.8544121682886736e-08
7.064580409951684e-09
2.7021402854637587e-09
1.2583711278544205e-08
2.796879797076586e-08
4.260343560488185e-08
4.977406335502561e-08
4.037346123011297e-08
2.4954970671414398e-08
1.4581418166528708e-08
9.302202514757783e-09
5.4640360806598085e-09
6.973260813527845e-09
2.593100574744004e-08
6.556558813303446e-08
1.2075401933251272e-07
1.673155601826226e-07
1.7943055208935973e-07
1.5203094377259135e-07
1.2791610963782305e-07
1.2534784586084436e-07
1.5264808421492272e-07
1.902133430285538e-07
2.1201785126331433e-07
2.0333960131422736e-07
1.893714585906464e-07
1.9611927648931527e-07
2.193260618679966e-07
2.19741094916242e-07
1.7926718763093018e-07
1.0353857510660965e-07
3.332225892444056e-08
2.298363653857283e-09
7.460581115359692e-09
2.4038797319361434e-08
4.206522091184498e-08
6.822549117007543e-08
1.0466476584341667e-07
1.340036728211311e-07
1.255235602398632e-07
8.88621270742393e-08
8.120091547659474e-08
1.549611319308932e-07
2.803156196601102e-07
3.855797567132996e-07
3.8155221408125366e-07
2.8030878436116154e-07
1.5897184721559464e-07
7.426083587790005e-08
3.630260560334195e-08
1.8318773092262274e-08
9.014419605618289e-09
3.584380827393051e-08
1.1409694454852688e-07
2.002741760988237e-07
2.2327869798168118e-07
1.573709530172946e-07
5.439248675179373e-08
8.055446841987885e-09
5.8703585437112925e-08
1.54370619604656e-07
2.0062429434401866e-07
1.6324709862816627e-07
7.757342111162333e-08
3.5220339433739625e-08
5.5497713479352266e-08
9.094010755668127e-08
8.431512839824817e-08
3.737039756082856e-08
7.833031532845462e-27
7.285753147122455e-28
5.787983928776029e-29
7.024393622347013e-30
5.593454371974709e-11
1.6498291185066361e-10
3.134604697443916e-10
4.878771666461482e-10
6.801456134773578e-10
9.032590783826668e-10
1.1769621331708352e-09
1.5265668391178305e-09
1.9861081405456347e-09
2.543880649395274e-09
3.2513665474839923e-09
4.007324981258496e-09
4.902947689677806e-09
5.737465253816419e-09
6.688885798688821e-09
7.483878560244976e-09
8.393225049304292e-09
9.148545474415559e-09
1.004839836875092e-08
1.0906905855484434e-08
1.1945994632243404e-08
1.3057623200136962e-08
1.4272811063662355e-08
1.5664370327834185e-08
1.6891959224890063e-08
1.8394176770361794e-08
1.9383459419460876e-08
2.0582937501134016e-08
2.1242049020266135e-08
2.1807531101428667e-08
2.2139565506931324e-08
2.209170329096502e-08
2.2194899692287154e-08
2.1785025330530107e-08
2.1815417393883543e-08
2.162193001015847e-08
2.1634298234034842e-08
2.1938030543700077e-08
2.2438463798074073e-08
2.340386856329758e-08
2.422789887891054e-08
2.625275622059541e-08
2.8122185412458384e-08
2.9771232022725368e-08
3.2615630221369057e-08
3.513533531228184e-08
3.7584114139674665e-08
3.916535155917793e-08
4.112383817508409e-08
4.306925387544554e-08
4.191565660265785e-08
4.19436810403328e-08
4.19431139971322e-08
3.749402177977628e-08
3.339527286005027e-08
3.276308335887042e-08
3.0329357063868565e-08
2.2214210287663186e-08
1.6360485526905247e-08
1.7797336920410202e-08
1.7834577501993267e-08
1.2556211704269918e-08
8.652728925526358e-09
1.0036708163971181e-08
1.2806475153994661e-08
1.1840736848525492e-08
9.880435764656872e-09
1.3050634937743942e-08
1.6725489135630055e-08
1.4416671780943154e-08
1.1871640281630337e-08
1.4493474426193746e-08
1.8418384394818574e-08
1.859771298632427e-08
1.4966365413597735e-08
1.0677884503727457e-08
7.034027760827691e-09
4.12083574123085e-09
2.3839024676199355e-09
1.4849237727002074e-09
1.0827260280560506e-09
1.1462941303026602e-09
1.4567560848858705e-09
1.60931350208536e-09
1.8821724934630086e-09
3.2329545541434745e-09
5.30144115128383e-09
6.768416249137125e-09
7.299593246333984e-09
7.232564495911988e-09
6.552822506224652e-09
5.505981186459276e-09
4.477816101276877e-09
3.030888347720884e-09
1.3206303687561205e-09
4.3743563549966257e-10
4.277464380967456e-10
4.3206905167966623e-10
4.692245306443976e-10
8.605015607758223e-10
1.2104590778230693e-09
1.6360439539494935e-09
2.1188811659740202e-09
2.074628596279557e-09
1.960523583330491e-09
2.5298847827742055e-09
3.4377050592084184e-09
3.4357415757720937e-09
2.4536863276414012e-09
1.8245510993808812e-09
1.8590640189774636e-09
1.654794669411838e-09
1.3219174352628186e-09
1.3320763865767917e-09
1.1552717202246169e-09
1.2664408317729303e-09
1.6816949793385364e-09
1.4390760782773702e-09
1.0806839115169087e-09
1.263546600522024e-09
1.3965243730923836e-09
1.4050391268572666e-09
1.5072267910021038e-09
1.6219276300418338e-09
1.659172768313001e-09
1.1632179925585257e-09
7.478940898309846e-10
7.312713816633434e-10
6.708686826062781e-10
7.668653554448279e-10
9.483021425801827e-10
6.257087742745627e-10
3.1405964692241915e-10
6.868215476332098e-10
1.1130104605376114e-09
9.945214510820276e-10
5.960843468832657e-10
4.892706536575237e-10
9.70937801839504e-10
1.6620232117505744e-09
1.2576002409716875e-09
8.915013745636363e-10
1.5360377398754029e-09
1.8920990902574116e-09
1.6405902964239019e-09
1.7520527114586648e-09
2.1483922527782856e-09
2.341332453859611e-09
2.2275197680833206e-09
1.8741321108933597e-09
1.4909305808297375e-09
1.6239014540789755e-09
2.3103633270609404e-09
2.5644377577497505e-09
2.0552156988885113e-09
1.4395748099970178e-09
1.6547989616053525e-09
2.8111429607728777e-09
3.508955547275497e-09
3.1976448977102495e-09
3.043727515558455e-09
3.1554850682374224e-09
3.143125647368614e-09
3.215360484907951e-09
3.099737866430375e-09
2.716298974146949e-09
2.8784925254507047e-09
3.170068069151282e-09
2.6538387788114572e-09
2.5502934734403706e-09
3.516063460565444e-09
3.898123861115875e-09
3.790640613597883e-09
4.638847340296846e-09
5.9244151432329055e-09
6.454855887863594e-09
6.567484448976687e-09
7.127640030625854e-09
8.274127240412706e-09
9.448754755220775e-09
9.759573686620942e-09
9.347466797438206e-09
1.0194810525525633e-08
1.2678013244237644e-08
1.4752794900037498e-08
1.4014276883850893e-08
1.0721077541269514e-08
8.935707694015887e-09
1.1238645195947076e-08
1.4665442483696022e-08
1.376746336857007e-08
1.0487690370737093e-08
7.851152518389295e-09
5.865404720253969e-09
5.857837582107331e-09
7.726435300391757e-09
8.836461611850835e-09
6.209507445522356e-09
5.658206217836712e-09
1.0636304053641835e-08
1.6011796705705827e-08
1.474249939031609e-08
1.2577669442629668e-08
1.838605197761746e-08
2.95721472697685e-08
3.2070675129034235e-08
2.2864316829987266e-08
1.548974764791833e-08
1.930640846281394e-08
2.5258151094338684e-08
2.6045441266962634e-08
2.1327013808157064e-08
1.2874727417752137e-08
4.998262371331216e-09
2.9905967211152937e-09
7.763494953120868e-09
1.6244792083471045e-08
2.3125687686531186e-08
2.373948061508038e-08
2.1811221246646204e-08
2.6360459769060216e-08
3.647440833311453e-08
5.1025650070420166e-08
7.145471026997064e-08
8.635687317630382e-08
8.35717441032012e-08
6.839957758039302e-08
5.0894520940561583e-08
4.1540215116124524e-08
4.7747435093673017e-08
5.980932889747388e-08
5.454532970086147e-08
3.08898358334076e-08
1.1466479058122271e-08
5.021196482033421e-09
8.347581770430588e-09
1.8954208073684153e-08
3.879817328744994e-08
5.862191547469059e-08
5.62258657008574e-08
2.9322131573320492e-08
5.843939400666205e-09
1.6002760098986418e-08
5.6907717091721097e-08
9.815881322159889e-08
1.0364198327590129e-07
6.757661944018627e-08
2.4439187251780396e-08
7.517139465607531e-09
2.1073851331287923e-08
4.5355670315662346e-08
6.572231054586367e-08
6.698027000814778e-08
3.867445564258263e-08
7.430578036983189e-09
1.23307008790523e-08
5.968749518738547e-08
1.0619872146992241e-07
1.0915081183362902e-07
7.468538768111337e-08
3.3114526628110106e-08
1.368900641622441e-08
1.744728609843968e-08
1.6935495010083065e-08
8.34777986687458e-09
1.5230864836389762e-08
4.6680635422346965e-08
7.275168303924857e-08
6.076288054561803e-08
3.564565754610013e-08
5.567079151526691e-08
1.249028687684115e-07
1.7136281449772086e-07
1.3357705220958156e-07
4.5038789775426806e-08
6.754834178337452e-09
4.448440638904879e-11
3.8520138744285723e-10
3.2431186180565585e-09
7.418056009959846e-09
1.312364710190162e-08
1.6090402089250392e-08
1.1420124590014543e-08
6.3491925851749635e-09
5.903650972811487e-09
5.379534233910117e-09
5.1333783685157285e-09
2.5055630670577248e-09
2.684733706098609e-09
9.912122727943957e-09
1.4880177888144466e-08
1.1976547812843872e-08
5.59355636981458e-09
9.906193773261744e-10
4.4216014706662616e-10
3.376913430316325e-09
7.029787635096431e-09
9.123749814949035e-09
8.686367090142802e-09
1.1661514971382452e-08
1.8572833762391777e-08
2.4962988136323884e-08
2.951407740288354e-08
2.884028026589088e-08
2.8713553508297707e-08
2.8962675767772132e-08
3.1614483792001984e-08
3.5688408454374935e-08
4.311982905829172e-08
5.1381460839612624e-08
5.834423742005158e-08
5.01012997348766e-08
2.9269062620485895e-08
6.227377449684216e-09
9.018945216069331e-10
2.0346387415453967e-08
5.818076228234781e-08
8.76341162126736e-08
1.1280216029027441e-07
1.3817311992755816e-07
1.6802030968768286e-07
2.0614747577748284e-07
2.3388248019110466e-07
2.437599100711713e-07
2.185998953226704e-07
1.6428903636885952e-07
1.0623618371496623e-07
5.82795009822002e-08
2.961526286399734e-08
1.9320659697706288e-08
2.7995087648767748e-08
5.0830640285854526e-08
7.416191675956826e-08
8.131530840240879e-08
6.757940213326204e-08
3.9781478166435076e-08
2.4123709149854288e-08
1.9620217100965523e-08
1.0122647040150022e-08
9.741727967523738e-10
1.1516061409913988e-08
5.88183535843431e-08
1.4181097579154288e-07
2.211682614657246e-07
2.5086949224378215e-07
2.313879302584384e-07
2.039787705668091e-07
2.146937368510135e-07
2.6601533351959903e-07
3.253660523526142e-07
3.5443153284048674e-07
3.2616989257280957e-07
2.9905748730395716e-07
3.051923109329879e-07
3.551999391551516e-07
3.6425179277808524e-07
2.946357442287482e-07
1.7233641522371383e-07
5.63246193342577e-08
6.3974161014339635e-09
1.3430719941890959e-08
3.396282386492841e-08
5.1321649015078495e-08
8.992073057577593e-08
1.625065848975081e-07
2.2764089667096546e-07
2.2660291792046731e-07
1.5433293805054041e-07
1.184373681859728e-07
2.1457984548000735e-07
4.0079496610854017e-07
5.507458842441645e-07
5.270448650376866e-07
3.719272631349935e-07
1.988783591876591e-07
1.1200348062876688e-07
8.696316503596164e-08
6.174127166284567e-08
1.4897108634932275e-08
2.1093187735823992e-08
1.2882486373537873e-07
2.8108611850340527e-07
3.4200926624174253e-07
2.515470370676851e-07
8.376191404190953e-08
3.1737134878806713e-09
7.407409286393865e-08
2.213521651884026e-07
2.7648117322073003e-07
2.1043926479689514e-07
7.704267835938006e-08
3.875619079733522e-08
1.1223374806156577e-07
1.9019423812790526e-07
1.747148605093194e-07
7.457469314933313e-08
1.7498319828643144e-26
1.6173772490980576e-27
1.3077227998527972e-28
1.231344978207522e-29
7.000148670000134e-11
1.9208527240798586e-10
3.462340955021895e-10
5.21249957157534e-10
7.031173387176264e-10
9.200119887998722e-10
1.1960099415976855e-09