# vtk DataFile Version 4.1 
COMMENT
ASCII
DATASET STRUCTURED_POINTS 
DIMENSIONS 400 400 1 
ORIGIN 0 0 0
SPACING 0.002506265664160401 0.002506265664160401 0 
POINT_DATA 160000
SCALARS U double 1
LOOKUP_TABLE default
1.059543382338781e-06
5.599488845239157e-08
1.7367698725423986e-07
2.311107029459609e-07
1.6010952139343487e-07
4.322257338970043e-08
2.86320975068689e-09
6.804982116195133e-08
1.496695626525478e-07
1.532261198522959e-07
7.631199130640012e-08
6.448538419578157e-09
1.4821343983239388e-08
7.67605799464542e-08
1.160105141400854e-07
9.007322801353456e-08
3.312838984742502e-08
9.166008651892072e-10
1.3177877670499758e-08
4.5102173248328515e-08
7.295308842641282e-08
7.583883647893143e-08
6.154867194415724e-08
3.5717923194718734e-08
6.601925787943627e-09
1.5583131915570367e-08
9.234958330471011e-08
2.1303461942877826e-07
2.8939487986735744e-07
2.4739943680847677e-07
1.115726626189745e-07
6.499965782990275e-09
4.410212148013577e-08
2.168214600640905e-07
3.787560612087573e-07
4.091628942833879e-07
2.8691023163928346e-07
1.1172332387719658e-07
1.4615873388311904e-08
2.8675832928162515e-08
9.941053252038573e-08
1.6029920827670773e-07
1.8878128645059268e-07
1.9243532430250913e-07
1.8887548856613612e-07
1.5625592821036407e-07
9.174776852598443e-08
2.062965756584272e-08
3.3521139235008343e-09
6.382281606001691e-08
1.6170239168015797e-07
2.1718988677627574e-07
1.935270869442668e-07
1.0553000244391679e-07
2.475833205796843e-08
8.948221993286554e-10
2.418579977858952e-08
5.112258830570121e-08
5.069807305787971e-08
3.317506502353167e-08
2.3492936498907677e-08
3.692427743170091e-08
5.823656278360975e-08
6.944329485614155e-08
5.393260055888925e-08
2.5874122329939268e-08
4.278672220852837e-09
4.8458011383555696e-09
2.6068153812420803e-08
5.3877806270636184e-08
7.243872792491904e-08
7.82908225170689e-08
6.388492534605555e-08
4.4260366251410335e-08
2.2578580670083538e-08
9.549373950795279e-09
7.451451220362821e-09
1.5668615619180286e-08
2.927549310311446e-08
4.1271515368888164e-08
4.4595113130228334e-08
4.322469399688767e-08
3.628792239080948e-08
2.4866763177462036e-08
1.5420636721202606e-08
9.208494394135368e-09
8.297808225227354e-09
1.2624840801601729e-08
2.1875551006298953e-08
2.7856688964614212e-08
2.4683732246926815e-08
1.623384552730029e-08
6.062109409689691e-09
4.884578420378553e-09
1.3113948080428631e-08
2.6517409929183566e-08
3.6009547065019084e-08
3.725595591147201e-08
2.9135686124339258e-08
1.816233747980331e-08
9.274560552536751e-09
7.539816545246109e-09
7.72040279582622e-09
8.399032639049395e-09
6.55480554613359e-09
4.285777572831253e-09
7.613877927734629e-10
1.0661320139208152e-09
6.0065323171796945e-09
1.6786174556922536e-08
2.6486539924171e-08
3.697559492002173e-08
4.543546691499534e-08
5.325609399241637e-08
5.219663182181519e-08
4.508293467056596e-08
3.537356012394965e-08
1.9431883839094396e-08
9.850130396617749e-09
2.8843381753081387e-09
8.813690710596225e-28
7.603636057773275e-29
8.483249267445102e-30
1.0232265551237616e-29
1.2758247590124272e-11
2.5030521074587277e-11
7.187611946944727e-12
1.7159267488764137e-11
1.2834829579670783e-10
1.9807526287560286e-10
1.4354425062634316e-10
5.788729294404634e-11
1.0979349938153895e-11
3.43365198880613e-12
1.7298796134767982e-11
8.901098752437048e-11
2.5598423435100735e-10
3.9418306878677823e-10
3.2314172110552083e-10
1.732529023756271e-10
9.486233798584463e-11
8.864520698876336e-11
1.394013820225989e-10
2.439794688237128e-10
4.934376501047137e-10
7.817553582272671e-10
8.791114591968241e-10
6.67090440965081e-10
4.82696727186786e-10
4.824064307730886e-10
6.484562053876459e-10
1.0072677728345837e-09
1.5469768453319214e-09
2.109926657011762e-09
2.268466265487092e-09
2.027904530339601e-09
1.7292661067176158e-09
1.7012837348522888e-09
1.9593051890017566e-09
2.7247681966353495e-09
3.917961021001499e-09
4.797537742858958e-09
4.628733300012995e-09
3.8916415377470655e-09
3.55788683417099e-09
3.891669371099475e-09
4.722827885506255e-09
5.589674513337286e-09
6.596656430074993e-09
6.7422973654441955e-09
5.954234861453987e-09
5.4905211884670365e-09
5.242553888858998e-09
5.3432273285904895e-09
6.256091619348078e-09
7.245091056838359e-09
6.971924887680103e-09
5.894706022118946e-09
4.7002392128072275e-09
4.411707007770497e-09
5.11654707853664e-09
5.696160653434251e-09
6.021138006346656e-09
6.017148273935623e-09
5.141936042520455e-09
4.2290460766938115e-09
4.111583320271323e-09
4.860566215383639e-09
6.11658643071118e-09
7.042475625421711e-09
6.892938507039289e-09
6.463913922730213e-09
5.722025607326101e-09
5.246826424572447e-09
6.1386171097985565e-09
7.569595711112708e-09
8.409795723921438e-09
8.311990551963713e-09
7.25891984884526e-09
5.953560841001153e-09
5.181433791717918e-09
6.010523489852796e-09
7.718154682243837e-09
8.307721768769458e-09
6.782356668845368e-09
4.5655653472714105e-09
3.255084610231184e-09
3.1775221192659363e-09
4.734796720400541e-09
6.772316715708146e-09
6.3788927650830505e-09
4.7717837790969096e-09
3.423694179637119e-09
3.1174926361233746e-09
4.962182850204803e-09
8.196757941347512e-09
1.040252367474397e-08
9.875266778055341e-09
7.773040144483964e-09
7.324485636734002e-09
1.0484620845732186e-08
1.5532494092162513e-08
1.7521210121560867e-08
1.4746551739130552e-08
1.1677066335478239e-08
1.2076890095800385e-08
1.6787867589541964e-08
2.1652676296639572e-08
1.9701759577831592e-08
1.3530932294636848e-08
1.1282551817690793e-08
1.4604800941552498e-08
1.9550156303535242e-08
1.9747039442801975e-08
1.3588387596347245e-08
7.981777967716655e-09
8.211087717009263e-09
1.1330997370430454e-08
1.2588090908406629e-08
8.578099310721053e-09
2.6394835560553004e-09
1.6460998135010143e-09
4.354025479909671e-09
5.210880751166906e-09
2.643609792454023e-09
4.2308228174673794e-10
2.7220715762320197e-09
7.588674363577808e-09
8.905273353702262e-09
5.686722133252026e-09
3.2425552368663697e-09
6.8384446918824234e-09
1.421908743919997e-08
1.7513630154291646e-08
1.3734535380060003e-08
8.492428875623884e-09
1.0856466002575736e-08
2.0078354890757926e-08
2.7185930628648488e-08
2.4931607056317144e-08
1.758192207669757e-08
1.7622570297013182e-08
2.8458240200348405e-08
3.897578849498477e-08
3.8823531368715384e-08
2.8832359350920888e-08
2.2550713214284677e-08
2.9613794982385964e-08
4.113634124942413e-08
4.233210626184708e-08
3.253643867797979e-08
2.2795145459532864e-08
2.4060364805883463e-08
3.2413896029083156e-08
3.6046910015025884e-08
3.053095897841838e-08
2.261100482278329e-08
2.1837940893600566e-08
2.747397058436713e-08
3.132842187792552e-08
2.8704953623042158e-08
2.2163199644633553e-08
1.9634735389711526e-08
2.1961193194133727e-08
2.2870003007848445e-08
1.9153029057527773e-08
1.40933844583117e-08
1.2230129351439389e-08
1.29468437336279e-08
1.2547541972344694e-08
1.0834228017765417e-08
9.064566626692241e-09
8.600459834789715e-09
8.983190516201462e-09
8.435296269029775e-09
7.712411071558751e-09
7.842033406624669e-09
8.41968715847136e-09
7.648730409037856e-09
5.4343528658113374e-09
4.114819377480048e-09
4.468185991195653e-09
5.654663027358606e-09
5.867069531388047e-09
4.160946953176775e-09
2.0840731847611763e-09
2.1067091625519147e-09
4.2608070229078495e-09
5.993412055095359e-09
5.492579512519856e-09
3.946478620238226e-09
3.3544606334619673e-09
4.714177970617452e-09
6.134049150053842e-09
6.04895783803691e-09
4.8108606356042626e-09
3.840297900005832e-09
4.3144777696070995e-09
4.5545138523938985e-09
3.2332005295278284e-09
1.8047353587271313e-09
2.1143736200524565e-09
4.538220933598911e-09
6.387539541684577e-09
5.175501535170363e-09
2.591938637119251e-09
1.447225071643406e-09
3.087779621752175e-09
5.774392357925678e-09
6.85593315409163e-09
4.970911335075658e-09
1.8740869283772274e-09
3.1583095200715115e-10
1.0100053443332578e-09
2.306319030427744e-09
2.16448676079164e-09
1.2042347112821816e-09
3.6676733200459447e-10
1.8447198569002152e-10
4.790689005643641e-10
8.669224205013747e-10
1.2866866138976416e-09
1.5232350003168315e-09
1.6737725930192232e-09
1.5707210431342178e-09
1.0584835095393667e-09
4.2384276996166327e-10
1.711019010248118e-10
8.090710213153917e-10
1.772059092842802e-09
2.1881422571194444e-09
1.8648571694880953e-09
8.158641812272293e-10
2.0663642369211717e-10
6.224764210581861e-10
1.3368317838680675e-09
1.8766373062043437e-09
1.7544061906007037e-09
1.55941864927056e-09
1.6843750245486822e-09
1.8896703005691204e-09
2.199575723632128e-09
1.8621106945487738e-09
1.0685914224531047e-09
5.076593175354858e-10
4.479851209823349e-10
9.907437952539799e-10
1.8244147290648397e-09
2.861905599193782e-09
3.411526911088225e-09
2.9713768754564544e-09
1.8528355494848226e-09
7.609079031319386e-10
2.4007161047208145e-10
9.695694302367708e-11
8.791797750071009e-11
2.802524104543673e-10
7.483193095211787e-10
1.3016737651193078e-09
1.7933051705190915e-09
2.2980241422788397e-09
2.729641952990393e-09
2.944445146349029e-09
2.8054096636991176e-09
2.3504049412406933e-09
1.6536931920037196e-09
7.700860670351193e-10
2.3678093951546534e-10
3.395855888850979e-10
7.616435246646552e-10
1.5551318370268804e-09
2.8204350721043156e-09
3.837950642718063e-09
4.175685915670529e-09
3.982065655042464e-09
3.291441585213237e-09
2.2939276866717408e-09
1.1068497404439756e-09
2.335583275538766e-10
5.989666634589038e-31
5.6896371469003954e-08
3.53489716204433e-07
1.0964041653184155e-06
1.4589770433355603e-06
1.0107542106653772e-06
2.728594631301194e-07
1.807513560929053e-08
4.2959121153983106e-07
9.448478725245329e-07
9.673000361050123e-07
4.817494041948107e-07
4.0708930384032345e-08
9.356555255678526e-08
4.84581296095088e-07
7.323619146946912e-07
5.686226133871619e-07
2.091359666772571e-07
5.786402806819628e-09
8.319052625459315e-08
2.8472517514362296e-07
4.6054501110427943e-07
4.787624285921208e-07
3.8855015483776074e-07
2.2548341254841092e-07
4.16772483646808e-08
9.837463794743827e-08
5.829929998295291e-07
1.344864669703291e-06
1.826918791744802e-06
1.5618060705830342e-06
7.043462347261761e-07
4.103358580527045e-08
2.7841195574987844e-07
1.3687705878769839e-06
2.391046330974056e-06
2.5830014020760457e-06
1.8112334743652247e-06
7.052973430663097e-07
9.226843876128185e-08
1.8102745310976618e-07
6.275680137882627e-07
1.0119516835845857e-06
1.1917559837424338e-06
1.2148235322093334e-06
1.1923506715793001e-06
9.864268908277957e-07
5.791938077743429e-07
1.302328123136553e-07
2.116153513745644e-08
4.029065823678683e-07
1.0208098296900127e-06
1.371096426137082e-06
1.2217157124969268e-06
6.661995701030814e-07
1.5629669090791048e-07
5.6489164285602425e-09
1.5268235612577059e-07
3.2273140872819354e-07
3.2005148956727815e-07
2.0943062205048385e-07
1.4830838466386755e-07
2.3309899726799498e-07
3.676411654717855e-07
4.383880612936518e-07
3.404707142498924e-07
1.6334055504415194e-07
2.70107981439592e-08
3.059102208296779e-08
1.6456545495149686e-07
3.401248037937858e-07
4.5729790850750586e-07
4.942415530749807e-07
4.032986716192672e-07
2.794109379933424e-07
1.425361545304737e-07
6.028417202164197e-08
4.704021116921664e-08
9.89142873862413e-08
1.8481304338276206e-07
2.605426434143037e-07
2.8152415908305486e-07
2.72872850295511e-07
2.2908175624783954e-07
1.569812049183297e-07
9.734882323953896e-08
5.8132235995444614e-08
5.238317203093111e-08
7.969926390475261e-08
1.3809800377773494e-07
1.7585628525483856e-07
1.5582575031381644e-07
1.0248252308299557e-07
3.826944555222e-08
3.0835818899183224e-08
8.278694561936204e-08
1.6740156056054004e-07
2.2732440271733598e-07
2.3519284788411127e-07
1.839304569428826e-07
1.1465688563347067e-07
5.854930455704873e-08
4.7598051973594056e-08
4.8738073576141954e-08
5.3022190882541784e-08
4.13797833394745e-08
2.705565346778966e-08
4.80655935260669e-09
6.730376887128766e-09
3.791859333692306e-08
1.0596931691951939e-07
1.6720668153474466e-07
2.3342295905958384e-07
2.8682922226111947e-07
3.3620000096154895e-07
3.29511730078867e-07
2.846037240686868e-07
2.2330948547181812e-07
1.226713954335167e-07
6.218281515887815e-08
1.8208517084450746e-08
5.563988274842685e-27
4.800093770111386e-28
5.355384141161824e-29
6.459519334359701e-29
8.05414466310326e-11
1.5801499093310595e-10
4.537462217597413e-11
1.0832461252309402e-10
8.102490050511584e-10
1.2504278586168845e-09
9.061794356430561e-10
3.654362624908462e-10
6.931145683140324e-11
2.1676276185456448e-11
1.0920544187808456e-10
5.61916803277821e-10
1.6160009753476323e-09
2.4884353727483754e-09
2.039958975621888e-09
1.093726963032088e-09
5.988557502282695e-10
5.596076700462262e-10
8.800259511467891e-10
1.540216180045252e-09
3.1150188833468028e-09
4.9351376055692235e-09
5.5497362136503664e-09
4.211270299429718e-09
3.0472125906838555e-09
3.0453799806058775e-09
4.093634371794023e-09
6.358773255953522e-09
9.76589865869898e-09
1.3319740351539191e-08
1.4320583870582093e-08
1.280194347612479e-08
1.091667118553652e-08
1.0740021477629502e-08
1.236888320274032e-08
1.7201168949026746e-08
2.4733667084476503e-08
3.028634045132805e-08
2.9220696135483032e-08
2.4567515013753707e-08
2.2460557419770612e-08
2.456769072271778e-08
2.9814705146692436e-08
3.528701479733652e-08
4.1643983474455225e-08
4.256339905566811e-08
3.7588445116368746e-08
3.466107050781606e-08
3.30956795803754e-08
3.373122019173434e-08
3.949403440552493e-08
4.573748162271198e-08
4.4013012938494416e-08
3.7212645947835466e-08
2.9672105282267267e-08
2.785063246406547e-08
3.2300212121617136e-08
3.595925036174141e-08
3.801079748378888e-08
3.798561073162833e-08
3.246048992413466e-08
2.6697513626390958e-08
2.5955983862157603e-08
3.0684232428280405e-08
3.8613353134372294e-08
4.445839216776995e-08
4.351438040169646e-08
4.080599428389781e-08
3.61225330374207e-08
3.3122651639407255e-08
3.8752430445063046e-08
4.778604464903153e-08
5.3090137081240566e-08
5.247270353624732e-08
4.5824781301255415e-08
3.758419009764877e-08
3.270983497223484e-08
3.794378918130336e-08
4.872388147657364e-08
5.244575516646607e-08
4.2816289135137913e-08
2.8821923634903426e-08
2.054899950502347e-08
2.005935583080264e-08
2.9890263115768075e-08
4.275290798940709e-08
4.0269264848074036e-08
3.012375844441638e-08
2.1613413605773584e-08
1.9680396151688267e-08
3.132572732892876e-08
5.174525244294171e-08
6.567001458930645e-08
6.23414984349121e-08
4.9070367504267185e-08
4.623869107755969e-08
6.618828521142735e-08
9.805496680743996e-08
1.1060951748648865e-07
9.309339715340763e-08
7.371606550369409e-08
7.624010995621997e-08
1.0598000485259163e-07
1.366910196753623e-07
1.243750919839221e-07
8.541932217400984e-08
7.122553772900654e-08
9.21985395942177e-08
1.234180367974966e-07
1.2466093890782058e-07
8.578203132224421e-08
5.0388106961117606e-08
5.183571477748594e-08
7.153136929975548e-08
7.946726577643913e-08
5.4152619546663586e-08
1.6662776173749215e-08
1.0391651309625768e-08
2.7486495174443085e-08
3.289573046424132e-08
1.6688824660921705e-08
2.670873000004891e-09
1.7184145474073415e-08
4.7906486132742796e-08
5.621803413716171e-08
3.5899665997653576e-08
2.0469902916792687e-08
4.317036679997144e-08
8.976357168462468e-08
1.1056166596730736e-07
8.670464658260776e-08
5.361179129203894e-08
6.853570374546686e-08
1.267524977430823e-07
1.7162185992825043e-07
1.5739055736044732e-07
1.109927855379955e-07
1.1124939338668862e-07
1.7965381359142777e-07
2.460499662509413e-07
2.450887833672425e-07
1.8201558760362082e-07
1.4236023027535088e-07
1.8694870680848324e-07
2.5968930371762487e-07
2.6723803979999015e-07
2.0539904252797535e-07
1.4390330478432957e-07
1.5189049861646105e-07
2.0462544394820072e-07
2.275602710074513e-07
1.9273866459982836e-07
1.4274084472368222e-07
1.3786057517609615e-07
1.7344022522938128e-07
1.977729622262986e-07
1.8121128892859153e-07
1.3991389873425302e-07
1.2395197548360903e-07
1.3863865371042621e-07
1.4437587244614986e-07
1.2091101515019775e-07
8.897002226844855e-08
7.72074929171355e-08
8.173203382723766e-08
7.921128469857496e-08
6.839531773601456e-08
5.722363545933202e-08
5.429377913329144e-08
5.670991681467994e-08
5.3251119283411923e-08
4.868762267925886e-08
4.950591455736779e-08
5.315258064508266e-08
4.828561349691428e-08
3.430648592011528e-08
2.5976412743720702e-08
2.8207178219834735e-08
3.5697280305722654e-08
3.703817975037786e-08
2.6267611174379218e-08
1.3156530158227904e-08
1.3299428654615857e-08
2.6898017068292275e-08
3.783576653167526e-08
3.4674064486470137e-08
2.4913695625288628e-08
2.117634966537322e-08
2.9760099163115294e-08
3.8723593405854264e-08
3.818642109302964e-08
3.0370446442173344e-08
2.4243388143682638e-08
2.7236834727252848e-08
2.8752156734819176e-08
2.0410847654184424e-08
1.1393100467071509e-08
1.334781355155213e-08
2.864930128854252e-08
4.032385101998067e-08
3.267238527385333e-08
1.6362630207462387e-08
9.136176426070159e-09
1.94928210835357e-08
3.645311870907057e-08
4.3280769583404806e-08
3.138082931636314e-08
1.1830909476991903e-08
1.993806875577684e-09
6.376055250773078e-09
1.4559544309762192e-08
1.3664172426220986e-08
7.602204381505188e-09
2.315362771257093e-09
1.164551830917145e-09
3.0243105108933194e-09
5.472788121630814e-09
8.122714386285985e-09
9.616018941308536e-09
1.056634659429977e-08
9.915793228982337e-09
6.6820927005197445e-09
2.6756738804191697e-09
1.0801479225505352e-09
5.1075784525791555e-09
1.118681871040915e-08
1.38135070336236e-08
1.1772643000523623e-08
5.15046294142689e-09
1.3044735472690399e-09
3.929626783896402e-09
8.439275458051311e-09
1.1847009738269997e-08
1.1075377834711185e-08
9.84444243054844e-09
1.0633278605703127e-08
1.1929285631777955e-08
1.388568527961185e-08
1.1755304799239617e-08
6.74590286901993e-09
3.2047987422410967e-09
2.8280819492031792e-09
6.254459160382064e-09
1.151733421818743e-08
1.806690264099775e-08
2.153660294635083e-08
1.875798304937343e-08
1.1696751804724795e-08
4.803529860846275e-09
1.515546290027349e-09
6.120787668436753e-10
5.550167484022618e-10
1.7692033643633659e-09
4.724059421563877e-09
8.217326662129058e-09
1.1320942916668337e-08
1.4507179571859434e-08
1.723193644938991e-08
1.8587965936344028e-08
1.7710249868634558e-08
1.4837853929311363e-08
1.0439587492483538e-08
4.861470623710221e-09
1.4947726377400437e-09
2.1437673466243242e-09
4.8081737605667814e-09
9.817380245314724e-09
1.7805103657967937e-08
2.42285701605516e-08
2.636065666144175e-08
2.5138352753487095e-08
2.0778517182862653e-08
1.4481319087625618e-08
6.987423521044275e-09
1.474428634577906e-09
2.3147539801058556e-10
2.102695285028567e-07
1.3820225357579882e-06
4.231144521611275e-06
5.600820223705393e-06
3.8117667475880758e-06
9.691152399657555e-07
8.201085115614672e-08
1.7614809047058116e-06
3.744921546510267e-06
3.701181311138465e-06
1.7578292796585977e-06
1.0859069309541463e-07
4.5643869751011645e-07
2.027563446058338e-06
2.9138278313940793e-06
2.1210184332924897e-06
6.827510518264926e-07
1.6507737052890233e-08
4.769132961847737e-07
1.2674062059386282e-06
1.7637448912712907e-06
1.6588394525803e-06
1.3293467911813838e-06
8.910184008011101e-07
3.1348604361975466e-07
4.0995403431168436e-07
1.8910280739126908e-06
4.439677457830888e-06
6.153173148879496e-06
5.338473243442441e-06
2.430067117861456e-06
1.4726307946869748e-07
9.771627654732884e-07
4.821120429735569e-06
8.365649577792795e-06
8.872129999014773e-06
6.035731633417652e-06
2.221858722036982e-06
3.5634983257055426e-07
1.013269422782086e-06
2.7085339220433228e-06
3.802542010941881e-06
4.062791097784501e-06
3.879635618171711e-06
3.8088949706335068e-06
3.273879220349326e-06
2.0434595347983052e-06
5.337670487368941e-07
1.038567257625971e-07
1.351730816674291e-06
3.452906388068583e-06
4.627212440860025e-06
4.051535222563466e-06
2.1114866749971227e-06
4.085051658013978e-07
3.2939711307405336e-08
6.825312510574052e-07
1.3135738182853418e-06
1.2312514493540697e-06
7.64481136154831e-07
4.922089968580626e-07
7.769261573388154e-07
1.2388708502062125e-06
1.459530488891177e-06
1.0909956646102506e-06
4.7243630685307685e-07
4.108884024715939e-08
9.762971206101568e-08
5.772414798371561e-07
1.1419974038954034e-06
1.4422283547795963e-06
1.4918348776036364e-06
1.1493409920420516e-06
7.433734449510199e-07
3.271183128813455e-07
9.739297738727361e-08
8.181255736991999e-08
2.715807268891053e-07
5.475778451344674e-07
7.83391141293651e-07
8.318319048056756e-07
7.886193370470479e-07
6.318486785125101e-07
4.009868867728537e-07
2.306167001865992e-07
1.1832706997524859e-07
1.1584242493623155e-07
2.1515943237828468e-07
4.1784041559388943e-07
5.461122645441892e-07
4.817230070206859e-07
3.0322643600564054e-07
9.645449274118069e-08
8.345872990886985e-08
2.6681249049728073e-07
5.467972805399365e-07
7.278248347052551e-07
7.312365073398379e-07
5.465114450161464e-07
3.103539486675901e-07
1.4473490791395423e-07
1.3483645521492208e-07
1.57370612887437e-07
1.7820145017322024e-07
1.3805492598504717e-07
8.997828496378709e-08
1.4068025403378165e-08
1.4212632542953929e-08
9.962787600959205e-08
3.002579459237845e-07
4.666172712340843e-07
6.636128964393437e-07
8.200340191531921e-07
9.790223330884043e-07
9.56761906646843e-07
8.244313120508676e-07
6.468883102079152e-07
3.4003451189770935e-07
1.7287116820166027e-07
5.0497910847523423e-08
1.1837959352702524e-26
1.0206385453687594e-27
1.0456008974489804e-28
1.5605561378164663e-28
4.429966300150642e-10
8.061729863775618e-10
2.520120854287874e-10
3.000197160928516e-10
2.519968285638242e-09
3.911370287793317e-09
2.7784283964117106e-09
1.0966806597200569e-09
2.866157457703411e-10
3.305561087604586e-11
9.357214555770423e-11
1.4041853279630263e-09
4.760207535493084e-09
7.3793887777669734e-09
5.822884964426117e-09
3.019988044505441e-09
1.5144002470820912e-09
1.1993395401909633e-09
1.7593195149608685e-09
3.649752936842254e-09
8.575128384054168e-09
1.3924782578277189e-08
1.54931599070558e-08
1.1645937896373525e-08
8.262940690682878e-09
7.626588391082807e-09
9.695896153740425e-09
1.5919153377620865e-08
2.6648303452818035e-08
3.805450883998179e-08
4.084374635693881e-08
3.590809641583958e-08
2.8353315233785286e-08
2.5786481613777254e-08
3.036322766731722e-08
4.596253923875194e-08
7.01623751682834e-08
8.553541733601969e-08
8.107250379248127e-08
6.645663687309368e-08
5.8059461102586253e-08
6.244300239075544e-08
7.76362446941237e-08
9.476865953109225e-08
1.1526458419213368e-07
1.18775819932681e-07
1.0433978599373853e-07
9.436488065592068e-08
8.325222542464012e-08
8.200939373143227e-08
1.0227365487698908e-07
1.2503955607916025e-07
1.2498609731301805e-07
1.06071693778269e-07
7.822552193276871e-08
6.678036453512062e-08
7.894565623821102e-08
9.463502334652224e-08
1.070809598831927e-07
1.1094545690879668e-07
9.237462540718481e-08
7.062366346177886e-08
6.433180996117404e-08
8.010172323367683e-08
1.0818295157350579e-07
1.2633934522666725e-07
1.2494752605112285e-07
1.1805337613606073e-07
1.0252528503062163e-07
9.230722320911434e-08
1.100010156268146e-07
1.3857089036392514e-07
1.5644573015509816e-07
1.5925370170666403e-07
1.382361729417698e-07
1.0721869846668664e-07
8.884031983580513e-08
1.0592683638576809e-07
1.4302317227675217e-07
1.5885650533043357e-07
1.2840105716284588e-07
8.202812019629992e-08
5.229369849786458e-08
4.983973238283292e-08
8.066300890856551e-08
1.2040109676548472e-07
1.1570833641726622e-07
8.842927504630093e-08
5.999205351356425e-08
4.935430678771956e-08
8.515275340111646e-08
1.5451499250384432e-07
2.0522378952033934e-07
2.0217791931871388e-07
1.5696565310846806e-07
1.3678032581916006e-07
2.024865016378847e-07
3.1798204201044703e-07
3.658992802717508e-07
3.0950778248828254e-07
2.370082219535704e-07
2.3942297404353315e-07
3.504666994330695e-07
4.701770992329306e-07
4.317241656765831e-07
2.9119320981281657e-07
2.349766321542304e-07
3.1391828414181657e-07
4.353775095050253e-07
4.392468619695813e-07
2.9590088780079806e-07
1.6552666871653086e-07
1.7170415101554523e-07
2.521606989203771e-07
2.8450023703926225e-07
1.8613646289448657e-07
5.378325795123804e-08
4.116412246883091e-08
1.151764836595884e-07
1.41183231171634e-07
7.452086975268525e-08
1.4875269210846815e-08
7.136981035112032e-08
1.9731265971387992e-07
2.376880687021815e-07
1.5393287039703223e-07
8.064176620231833e-08
1.643871316132027e-07
3.5007135201553585e-07
4.4473474147527096e-07
3.5274595503232375e-07
2.0788646078884122e-07
2.6034055357418093e-07
4.976515539932931e-07
6.84892934712095e-07
6.280901352789585e-07
4.2519038039768733e-07
4.10313983605711e-07
6.787882146706278e-07
9.41724527834951e-07
9.314479140776731e-07
6.720349703001358e-07
5.149056459587117e-07
6.934348432915296e-07
9.725841807298894e-07
1.0003217839809714e-06
7.597271595730912e-07
5.297499277347377e-07
5.814679981413031e-07
7.944699363214327e-07
8.80782556506845e-07
7.405388581662284e-07
5.445364554672571e-07
5.371383081904269e-07
6.767810862889368e-07
7.624605997401335e-07
6.889897854441885e-07
5.260370516043758e-07
4.786332700918201e-07
5.432527484864613e-07
5.588491293202066e-07
4.6918514169947365e-07
3.481512700179934e-07
3.101440833085993e-07
3.34451985895311e-07
3.214883484586837e-07
2.7605256146794903e-07
2.3068157362881734e-07
2.2389826001139966e-07
2.3558510373937215e-07
2.147113861749663e-07
1.9578633497113497e-07
2.0050411559453523e-07
2.1471712781629652e-07
1.9575929017941298e-07
1.4006331941117205e-07
1.0660313896164504e-07
1.1568509194727418e-07
1.5076829659034594e-07
1.5927752547598077e-07
1.1300865503989477e-07
5.98981248580702e-08
5.960953370191473e-08
1.1527234442455061e-07
1.583856321077552e-07
1.447625363049199e-07
1.0599702762376754e-07
8.5392367483132e-08
1.1467409757809793e-07
1.488791152191542e-07
1.4803685991861468e-07
1.2055369242804374e-07
9.619440486865933e-08
1.0876021745189471e-07
1.1447069366471979e-07
8.198297571397535e-08
4.979291543746774e-08
5.656510184230429e-08
1.1719145737730276e-07
1.6187687987056379e-07
1.3283238460593325e-07
6.903422022917658e-08
3.6648917814289654e-08
7.437787360100906e-08
1.3647441397264227e-07
1.6152975205983736e-07
1.1706484373162065e-07
4.528376737912006e-08
9.253882292800311e-09
2.2416604522918537e-08
5.211710045458826e-08
5.199611895563284e-08
3.2341948118718936e-08
1.2723570495378897e-08
5.678124980457172e-09
1.1573150061282247e-08
2.0885601665103086e-08
3.3666119948237205e-08
4.231838516806762e-08
4.628884513257951e-08
4.249206883972776e-08
2.532887881896021e-08
8.88375576063638e-09
3.949999939081227e-09
2.1046343573235452e-08
4.4760744471067504e-08
5.338205174623122e-08
4.519910500466513e-08
1.750588630542291e-08
3.922571106460731e-09
1.6975510387289436e-08
3.7323976695792034e-08
5.00639366934839e-08
4.23461787298643e-08
3.4599927578817336e-08
3.68195614469541e-08
4.371131213308373e-08
5.087147302070253e-08
4.22542770665499e-08
2.4876036995309223e-08
1.2448499877267876e-08
1.2035145154163915e-08
2.3851834734916554e-08
4.2839472163470995e-08
6.687694574403075e-08
7.84105486169257e-08
6.981393657146328e-08
4.4043267026021555e-08
1.7945010029673526e-08
5.79349817107296e-09
1.908784774989106e-09
1.3135035226864037e-09
5.042916706316931e-09
1.4791307707748924e-08
2.846316358367184e-08
4.1189520011114e-08
5.4423267667921676e-08
6.565741612772145e-08
7.1127884737289e-08
7.067220135305568e-08
6.000736956175638e-08
4.01044830025192e-08
1.8450541207678622e-08
4.779705993086375e-09
6.245776201088691e-09
1.673396010518694e-08
3.7589652017259616e-08
7.097850759978513e-08
9.60665649492026e-08
1.0804293715674703e-07
1.0696484356034013e-07
8.660053204341444e-08
6.046517702452221e-08
3.0558596594851446e-08
6.322451715581771e-09
8.936101826263309e-10
4.026678859030638e-07
2.6016380415870167e-06
7.9152567135019e-06
1.0396356678516761e-05
6.910781529010973e-06
1.6210628235839273e-06
2.0962607994031523e-07
3.615866287256026e-06
7.316101853612618e-06
6.9339259288341824e-06
3.090232570026567e-06
1.1911457290030289e-07
1.1130961410463198e-06
4.184240098762436e-06
5.6260382886545735e-06
3.7524041024368404e-06
9.971223460936536e-07
1.339548556588782e-07
1.3902352175276139e-06
2.7783734838557112e-06
3.1317794576276173e-06
2.5046885492913978e-06
2.0630871967599668e-06
1.8967213400088277e-06
1.2136091796003226e-06
9.903500669929172e-07
2.6752751745421087e-06
6.46442131793788e-06
9.524136668314734e-06
8.698218102159214e-06
4.244163542410694e-06
4.745838444800626e-07
1.660039146089108e-06
7.907406107712631e-06
1.3641564716751858e-05
1.4225227445111263e-05
9.287201088003683e-06
3.2261949989958045e-06
8.760439451829121e-07
2.7677156373952934e-06
5.794966534976536e-06
6.889691998885064e-06
6.305491273075562e-06
5.396259066790532e-06
5.520346353424405e-06
5.2892724070223175e-06
3.827696131554791e-06
1.4160833390268902e-06
3.4869055975658745e-07
1.980516390208526e-06
5.251906212112967e-06
7.176791683552224e-06
6.205495473768203e-06
3.0989149633982675e-06
4.775610250225661e-07
1.546441991081766e-07
1.4872813274195723e-06
2.5944403198316647e-06
2.2863411026303537e-06
1.3193124624524216e-06
7.386323526370393e-07
1.2002409750124065e-06
1.9546136704724933e-06
2.3125065952956905e-06
1.647363177179014e-06
6.620485054528628e-07
3.895737712168306e-08
2.1002251372369384e-07
9.760137101455514e-07
1.731008489395942e-06
2.002613130566502e-06
1.9260676621519178e-06
1.3752460814275864e-06
8.254074502506916e-07
3.055075122014252e-07
3.475909886816112e-08
3.3521367468813666e-08
3.012746324084785e-07
6.654086626575283e-07
9.94472450039944e-07
1.0263330588780298e-06
9.401517814588436e-07
7.11466594981648e-07
4.0730901094525253e-07
2.0069573395234328e-07
6.588888393610235e-08
5.6236808199384476e-08
2.0246105993185615e-07
5.109705082351989e-07
7.470307857900743e-07
6.806589698535325e-07
4.2424452717280425e-07
9.834022833848196e-08
7.829199837140409e-08
3.7269692975778296e-07
8.014645819157901e-07
1.0612518657613989e-06
1.001438103546043e-06
6.853389868965758e-07
3.185648682005362e-07
1.2173304811159234e-07
1.7130102113879e-07
2.441375571140546e-07
2.802335328290355e-07
2.013884444728297e-07
1.2659394809849696e-07
1.3629037117164032e-08
1.3429855836743535e-08
1.2484899418925338e-07
3.842514055980603e-07
5.634449397616376e-07
7.882827052528373e-07
9.501341940541579e-07
1.1430322783611447e-06
1.0934627606297976e-06
9.342250670292464e-07
7.25056823112987e-07
3.5226199025150496e-07
1.7903338866265134e-07
5.1474767268056405e-08
1.1419641786584112e-26
9.429063627994163e-28
1.2891136062602762e-28
3.618121685707912e-28
9.317273152073742e-10
1.9709490752052097e-09
9.352250735930512e-10
2.8000744641904627e-10
3.978086656226244e-09
6.155232757843329e-09
3.908600397261915e-09