# vtk DataFile Version 4.1 
COMMENT
ASCII
DATASET STRUCTURED_POINTS 
DIMENSIONS 400 400 1 
ORIGIN 0 0 0
SPACING 0.002506265664160401 0.002506265664160401 0 
POINT_DATA 160000
SCALARS U double 1
LOOKUP_TABLE default
1.074348810256259e-06
5.3095388274527426e-08
1.5737081622962897e-07
2.0709236170765444e-07
1.407598507546851e-07
3.343730133606731e-08
3.6978646600045164e-09
7.391874648728669e-08
1.5704622806391022e-07
1.5311194471851919e-07
7.516963210462577e-08
5.762309261137755e-09
2.4112298808981597e-08
1.0196862157040278e-07
1.5645036644339073e-07
1.2705801211090357e-07
4.8423361377704414e-08
2.531233535652496e-09
2.220983121631358e-08
8.157880676994025e-08
1.2296177490163175e-07
1.2410030325600728e-07
8.53571220374716e-08
3.6130642957140566e-08
4.3062038917749e-09
2.456829990328986e-08
1.0836279196463153e-07
2.318195489299895e-07
3.0279372203657777e-07
2.6383179163304134e-07
1.3361019283421633e-07
1.3290076454531614e-08
2.8613098939583844e-08
1.9077787412386923e-07
3.82055677948841e-07
4.492626735267822e-07
3.497366875128663e-07
1.5317842256531418e-07
2.613562781990904e-08
2.792235562547128e-08
1.253128767071543e-07
2.1796346555715556e-07
2.574981929014065e-07
2.470327022397954e-07
2.1810961009804547e-07
1.7941153430660933e-07
1.2131475849472849e-07
4.846116904912441e-08
1.398291591735529e-08
6.157406300103295e-08
1.6627992756970653e-07
2.554148359729143e-07
2.522502276533378e-07
1.669610584529351e-07
5.948069350784674e-08
5.3535705066930566e-09
1.632323160399822e-08
5.3770019417604905e-08
6.587925834206949e-08
5.432424453451959e-08
3.548805644060835e-08
4.206877809920928e-08
7.216292166754843e-08
9.461077837413554e-08
8.382094522800342e-08
4.9200725790798145e-08
1.1956761057594e-08
3.2194595727309268e-09
3.0742750306772813e-08
7.64440283216713e-08
1.0931417490602655e-07
1.1615741010177126e-07
9.353955237651044e-08
5.956911879028718e-08
2.7278897427831176e-08
6.766763871662746e-09
5.988214973805588e-10
8.423919830272004e-09
2.3496285102166135e-08
4.331270453648171e-08
5.8235806930371166e-08
6.178484913805736e-08
5.247947381560156e-08
3.8781275864669616e-08
2.2988239502746874e-08
8.682506219989536e-09
4.313192056192373e-09
8.718446361707985e-09
2.0857322050713404e-08
3.1138918069799914e-08
3.144337649637639e-08
2.0224701544270008e-08
8.126849567337259e-09
5.639557278518536e-09
1.7791183583214784e-08
3.682537391002648e-08
4.593192277345613e-08
4.2821965322072324e-08
3.073079156695451e-08
1.745646097369379e-08
1.2308292897731092e-08
1.3420328314373113e-08
1.7064252038487143e-08
2.003746091753068e-08
1.4132965177113253e-08
7.96318367488371e-09
2.16417522344469e-09
2.6626562008402137e-09
1.2255786296341303e-08
2.906181639926095e-08
4.461473519293111e-08
5.973020749284701e-08
6.158088130489004e-08
5.809294356141639e-08
5.0845434277933886e-08
3.975785823587954e-08
2.9776184026047547e-08
1.9151918070956984e-08
1.1677304654061296e-08
3.1194255686101155e-09
9.964280045989712e-28
9.145349028811514e-29
1.473243661421601e-29
8.086657562315997e-30
3.3254587880010984e-11
4.1331715217156995e-11
1.2517881525569674e-11
1.6752741149649205e-11
9.78303703704014e-11
1.6896827971982118e-10
1.3097453485263196e-10
4.678300850281702e-11
2.3772145201032292e-11
5.273001849315624e-11
7.113559017956676e-11
1.3809995899188738e-10
2.9821467836166727e-10
3.9978749117008943e-10
2.8744704378013e-10
1.5009314830912557e-10
1.3731902574816677e-10
2.104712502943423e-10
2.8048386177699233e-10
3.356293954489359e-10
5.347551998612375e-10
7.799425732764341e-10
8.818304980746936e-10
7.634631007942705e-10
6.898681577239087e-10
6.916157977240381e-10
7.929099852026449e-10
1.106267207476742e-09
1.6067943601391648e-09
2.0148142578950288e-09
2.043110851707006e-09
1.8088959586030148e-09
1.6601510449543288e-09
1.8527716088005351e-09
2.2149908266520156e-09
2.8192580566272307e-09
3.331709967754559e-09
3.471265468632777e-09
3.3512440930102694e-09
3.0608078553827244e-09
2.9538970649262105e-09
3.5290856784400586e-09
4.621501883670624e-09
5.351229167487974e-09
5.543302811092282e-09
4.7950008005170345e-09
4.207166214444194e-09
4.084914446404401e-09
4.137475675594879e-09
5.127544646353778e-09
6.675621858447523e-09
7.095837491738887e-09
6.018953905562628e-09
4.660950401747816e-09
3.747381188798119e-09
3.89550708053822e-09
4.836768799644999e-09
5.894804931311627e-09
6.973877954254904e-09
6.860600801001515e-09
5.6873836739133165e-09
4.504605948186524e-09
4.08512848551033e-09
4.764932373466957e-09
6.20615297708075e-09
7.583145062468604e-09
8.087792199220018e-09
7.310285799986773e-09
5.450307367740466e-09
4.692891395532902e-09
5.6988213605600925e-09
7.259403310218289e-09
8.736472460486664e-09
8.553584759414448e-09
6.789739379075302e-09
5.058297582455567e-09
4.790700684940433e-09
6.347991890243523e-09
7.721644169273233e-09
7.667367869324263e-09
6.485732891777371e-09
4.856084806679766e-09
3.7523918499562896e-09
4.218159865879561e-09
5.880669405804944e-09
7.2258622236948165e-09
7.378347456340528e-09
6.688075838727951e-09
5.121044804913175e-09
5.353232355270525e-09
8.151623787234975e-09
1.0991268152134302e-08
1.2512648960377307e-08
1.1404082091980365e-08
9.150584066630365e-09
9.701864726591472e-09
1.3720247217621658e-08
1.805316429756174e-08
1.8818304349966572e-08
1.5541648428045567e-08
1.2169405944478625e-08
1.3170182868731695e-08
1.8129712556482156e-08
2.1321788435376833e-08
1.8290073714034763e-08
1.2925670029353899e-08
1.0256176312474148e-08
1.3019691923501607e-08
1.72531078209284e-08
1.746363530845206e-08
1.2254890063035518e-08
6.4722715356191546e-09
5.376356686813677e-09
8.71088361384864e-09
1.0586226277522181e-08
7.403835950409246e-09
2.4798900221354642e-09
3.255123343143557e-10
1.886890238917273e-09
3.039643031791334e-09
1.6985614414094597e-09
4.6704960433817513e-11
1.6870929975297483e-09
5.529581192781304e-09
7.101998185025531e-09
4.19857561514326e-09
1.7365703344886362e-09
5.313819022767176e-09
1.3500145801604898e-08
1.781479428652644e-08
1.3731506477057936e-08
7.26744386505276e-09
8.489758712118566e-09
1.8869846400047596e-08
2.808453955653753e-08
2.512733647389239e-08
1.611896420066092e-08
1.420881580947825e-08
2.4304872419687637e-08
3.743043178029362e-08
3.8651920294913845e-08
2.82672928332406e-08
2.1108385090883558e-08
2.5999219657456012e-08
3.75230761126141e-08
4.20463244768277e-08
3.438653099388134e-08
2.3782800747005206e-08
2.2152211096523656e-08
3.052520572977004e-08
3.6844437450994e-08
3.17668676526172e-08
2.3324943873749194e-08
2.131174794043276e-08
2.687943182841032e-08
3.217042597739838e-08
2.9271407704310832e-08
2.2600626136807006e-08
1.980612644720232e-08
2.2083730156071972e-08
2.4345959798209265e-08
2.2310481613467265e-08
1.8106097623058515e-08
1.4430760005339216e-08
1.3304656527589804e-08
1.3864212649916698e-08
1.309404825022386e-08
1.117740594484585e-08
9.733769962622324e-09
9.593708898328936e-09
9.744559486932423e-09
8.902407105504794e-09
8.622182084847639e-09
9.04146933920557e-09
9.33236236661068e-09
8.767294765045944e-09
6.772201820069302e-09
5.477137195508781e-09
5.7088133713855505e-09
6.782183493849688e-09
6.756075195820148e-09
4.918808922453148e-09
3.842644172624053e-09
4.232962760564474e-09
5.45643255712488e-09
5.877618019664162e-09
5.5632437656485895e-09
5.822825351818254e-09
6.2455056827973925e-09
6.919407241555955e-09
6.6464437392758e-09
5.382267999217488e-09
5.5529111338113475e-09
6.823870427478779e-09
7.673105556796424e-09
6.334526081821318e-09
3.981421429795521e-09
2.9618069929436965e-09
4.131833734776816e-09
6.72680255934546e-09
8.112643340250595e-09
6.849479260940812e-09
4.328946185106853e-09
3.6596618265729976e-09
5.508698862410431e-09
7.604881431247862e-09
7.775156275800072e-09
5.96072088125025e-09
4.136324635138239e-09
3.4692931332900036e-09
3.2759584145697143e-09
2.8771805167256416e-09
1.7672636059606813e-09
1.2335503478550248e-09
1.5614393714389196e-09
2.124794610115041e-09
1.9393702749634152e-09
7.190328605799676e-10
4.355318841240911e-10
1.6435490907519802e-09
4.052206409889154e-09
5.021725301344172e-09
3.800352804552061e-09
1.8042905105587202e-09
1.2110151701907129e-10
5.989332119283485e-10
2.2761675111172173e-09
3.5760434558313585e-09
3.177938108512056e-09
1.6727065665027676e-09
6.050207216679544e-10
7.23807951629375e-10
1.7716567429372115e-09
1.9867738595781867e-09
1.4117423846089813e-09
4.2160704479143243e-10
9.200614081682572e-11
6.660865525817142e-10
1.1854775619914518e-09
1.4099856627382879e-09
8.022468198844308e-10
2.0386589451638183e-10
1.0235463966052828e-11
5.7998089634605446e-11
9.765919608201137e-11
1.1825330579182021e-11
1.7952517014177332e-11
8.090802395495091e-11
1.6370333265515057e-10
2.684025085164352e-10
5.08283792562747e-10
4.585892217173098e-10
2.2259537375529487e-10
1.1206647793385611e-10
1.5967522786157383e-10
3.5642924056747253e-10
4.096619445279764e-10
9.093798862551661e-10
1.7545793587645586e-09
2.5143324774246276e-09
2.5627071601447073e-09
1.762233840538956e-09
9.62276247972875e-10
2.9233673436760644e-10
4.7479766663211554e-11
2.339769708071593e-10
8.834356506738625e-10
2.1059480576603686e-09
2.6961584109238355e-09
2.8722621756618636e-09
2.827987086595341e-09
2.1208009753879103e-09
1.5846468719422226e-09
9.389563969707826e-10
1.864165906036684e-10
6.073362667320028e-31
5.255046517010159e-08
3.3518548302644696e-07
9.934650591396184e-07
1.3073518349873223e-06
8.886018183348453e-07
2.1108609172385477e-07
2.334422239877807e-08
4.666411067180615e-07
9.914159689145206e-07
9.665792607494072e-07
4.7453781325857626e-07
3.6376839416933665e-08
1.5221835239961712e-07
6.437169551882448e-07
9.876543585076418e-07
8.021035827362993e-07
3.0569147906461e-07
1.597940542243777e-08
1.4020827883741815e-07
5.149982444901325e-07
7.762444772245051e-07
7.834318844325952e-07
5.38850342932763e-07
2.280888680769901e-07
2.7184602625222673e-08
1.5509703832740484e-07
6.84082666068095e-07
1.4634519118932487e-06
1.911504243145292e-06
1.665541761537121e-06
8.434667958512466e-07
8.389882512654504e-08
1.8063142017833354e-07
1.2043602272637664e-06
2.411876457031496e-06
2.8361470011901453e-06
2.2078501418984673e-06
9.669989282556199e-07
1.6499141111316461e-07
1.7627083183135678e-07
7.910867303831755e-07
1.3759799458881302e-06
1.6255584330570255e-06
1.5594909146431173e-06
1.3769025406769013e-06
1.132605744893425e-06
7.658470395591854e-07
3.0593015483323787e-07
8.827264623518076e-08
3.8871044585248013e-07
1.049707322072517e-06
1.6124064245476869e-06
1.5924285921472103e-06
1.0540072281758251e-06
3.7549522909771213e-07
3.3796515564101016e-08
1.0304680778393655e-07
3.3944435696834056e-07
4.158886816052232e-07
3.429431206002764e-07
2.2403228842045775e-07
2.6557567739420354e-07
4.555567732299844e-07
5.972676814203971e-07
5.291526237404038e-07
3.1059889710519716e-07
7.548174824147898e-08
2.0324102469887028e-08
1.9407568050652523e-07
4.825829396896869e-07
6.900886443859445e-07
7.332892531222348e-07
5.905051467613046e-07
3.7605344840770755e-07
1.7220874934562048e-07
4.271785348139774e-08
3.780295791572855e-09
5.317930104751488e-08
1.4832952403655365e-07
2.73428451378466e-07
3.676363938514789e-07
3.9004111609428143e-07
3.3129728120464993e-07
2.4482202890900446e-07
1.45122286738272e-07
5.4811729150185285e-08
2.72287181565684e-08
5.50386154044048e-08
1.316700337524513e-07
1.965766450408303e-07
1.9849865838492453e-07
1.2767636844712775e-07
5.130392838690383e-08
3.560191933585354e-08
1.1231383095117063e-07
2.3247462995921738e-07
2.8996329476962226e-07
2.703304674298159e-07
1.9400018626657996e-07
1.1020076307092326e-07
7.770093098907092e-08
8.472109112694288e-08
1.07724790191418e-07
1.2649433848265515e-07
8.92198910947473e-08
5.027072318773752e-08
1.3662205724412961e-08
1.680906259122623e-08
7.73694624544043e-08
1.8346412530305387e-07
2.816480310572271e-07
3.770703840838993e-07
3.887534890723535e-07
3.6673451274869275e-07
3.209817651209259e-07
2.509870885205217e-07
1.879738513983764e-07
1.2090400161131102e-07
7.371756998331034e-08
1.9692598546854414e-08
6.290342963417331e-27
5.773360608680693e-28
9.300428988597415e-29
5.105020057636034e-29
2.0993264130162558e-10
2.6092267859016066e-10
7.902404148401065e-11
1.0575825541059527e-10
6.17592619865836e-10
1.066678600431426e-09
8.268281701182149e-10
2.953361075611544e-10
1.5007099920965324e-10
3.328789428422231e-10
4.490713398954171e-10
8.718102073440437e-10
1.8825972322757554e-09
2.52381548926474e-09
1.8146223117496289e-09
9.475219232757774e-10
8.668802596590492e-10
1.3286823956975238e-09
1.7706644917021482e-09
2.1187923224096097e-09
3.375852136905544e-09
4.923693688891823e-09
5.566901214025435e-09
4.819660549226373e-09
4.355063578698568e-09
4.366096242299611e-09
5.005555567509537e-09
6.983746052993913e-09
1.0143520204480697e-08
1.2719305992251508e-08
1.2897939349556127e-08
1.1419365887184212e-08
1.0480355224501465e-08
1.1696348154052967e-08
1.3982999169189382e-08
1.779767328568822e-08
2.103272715648634e-08
2.191372604341424e-08
2.1156043991000872e-08
1.932255121957167e-08
1.8647634883060056e-08
2.2278738817268322e-08
2.917504498086391e-08
3.378173494119027e-08
3.499427522200118e-08
3.027032500682483e-08
2.6559388406197248e-08
2.5787626126027358e-08
2.6119439520131975e-08
3.2369638585961725e-08
4.2142483741834075e-08
4.479525989805634e-08
3.799700949014078e-08
2.9424079238189878e-08
2.365681492631852e-08
2.4591917770183553e-08
3.053400189888123e-08
3.72132703509447e-08
4.402534243799585e-08
4.3310235936979555e-08
3.590384223279004e-08
2.8437093496330478e-08
2.5788977331912444e-08
3.008050625660653e-08
3.917877712096546e-08
4.787158024876084e-08
5.105736341726035e-08
4.614904903342569e-08
3.440720497706822e-08
2.9625719301067713e-08
3.5976047120031526e-08
4.5827833340973174e-08
5.51524122297519e-08
5.3997861817453726e-08
4.286289539181825e-08
3.193248930962768e-08
3.024317883907932e-08
4.0074190944376905e-08
4.874591023337294e-08
4.840326978179132e-08
4.094373509184514e-08
3.065594177649573e-08
2.3688446691998432e-08
2.6628790146844384e-08
3.712403429676439e-08
4.561609206450915e-08
4.657871495926011e-08
4.222110438162138e-08
3.232860578511659e-08
3.37943808504925e-08
5.146032537603753e-08
6.93866952360869e-08
7.89910088619983e-08
7.199274529662929e-08
5.776665431824468e-08
6.124682990970656e-08
8.661444694787305e-08
1.1396768706063097e-07
1.1879793402524794e-07
9.811275714657231e-08
7.682415257149346e-08
8.314194979755536e-08
1.1445092799689476e-07
1.346021601489664e-07
1.1546327075960388e-07
8.159836650649324e-08
6.474613941094957e-08
8.219191662504622e-08
1.0891701646034765e-07
1.1024605387563327e-07
7.736380462981226e-08
4.085875499634693e-08
3.394036227166376e-08
5.499087258950841e-08
6.682970938854328e-08
4.673962108451281e-08
1.5655279336580764e-08
2.0549244021738843e-09
1.1911735401185422e-08
1.918893996162268e-08
1.0722835931535426e-08
2.948433984849609e-10
1.0650436877186165e-08
3.490765211948823e-08
4.483415169303456e-08
2.6505156875555036e-08
1.0962781990883792e-08
3.354556871591481e-08
8.522497035037779e-08
1.1246288278507361e-07
8.668552544330013e-08
4.5878592499980685e-08
5.359493483664094e-08
1.1912331345110795e-07
1.7729468156746753e-07
1.5862617614965808e-07
1.017572896077032e-07
8.96987279895011e-08
1.5343404891903812e-07
2.3629429530295404e-07
2.440054210916443e-07
1.7844838337316214e-07
1.332549677575369e-07
1.641302810356489e-07
2.3687914902166014e-07
2.654339300879262e-07
2.1707847659374872e-07
1.50138266526833e-07
1.3984452921035132e-07
1.927023449590868e-07
2.325949760456677e-07
2.0054082330702148e-07
1.472478652658835e-07
1.3453877558286705e-07
1.6968696592439324e-07
2.0308844366383536e-07
1.8478725269894092e-07
1.4267532519392278e-07
1.250339488198701e-07
1.394122163890434e-07
1.5369342912631447e-07
1.4084367398345847e-07
1.1430184945874919e-07
9.109983785821384e-08
8.399086756166777e-08
8.752328525815012e-08
8.266132012878567e-08
7.056176312780113e-08
6.144824423772274e-08
6.056405378325913e-08
6.151635734575406e-08
5.619993982016426e-08
5.443090936464869e-08
5.7077824764384435e-08
5.891420120061411e-08
5.5346990127709344e-08
4.2752182665580394e-08
3.457657879788939e-08
3.603912561109782e-08
4.2815195899991475e-08
4.2650377018909315e-08
3.1051912381969095e-08
2.4258199910700597e-08
2.6722239230962554e-08
3.444587263972525e-08
3.710477122381708e-08
3.512016032619149e-08
3.6758870997166894e-08
3.9427206525150785e-08
4.3681474679606137e-08
4.195828540962093e-08
3.397767975191548e-08
3.505493153126503e-08
4.307836103426099e-08
4.843949118649917e-08
3.9989182742214394e-08
2.5134285828701483e-08
1.8697569409003005e-08
2.6083822553767016e-08
4.2465582009115e-08
5.121424600124342e-08
4.324002684917761e-08
2.73281722802026e-08
2.3103052014817133e-08
3.477582421089683e-08
4.8008799610089286e-08
4.908372641396513e-08
3.762939066265779e-08
2.6112173125366267e-08
2.1901274902250344e-08
2.0680773589688485e-08
1.816333155464714e-08
1.1156545316821365e-08
7.787270846300412e-09
9.85719903254487e-09
1.3413600142464344e-08
1.224303623169109e-08
4.539177215152013e-09
2.749466002560299e-09
1.037554887089265e-08
2.5581143804784583e-08
3.170161242732069e-08
2.399121904671733e-08
1.1390292188366932e-08
7.645008690283311e-10
3.781001033513425e-09
1.436920100702889e-08
2.2575178222049954e-08
2.0061981926230622e-08
1.0559616883406802e-08
3.819430828620072e-09
4.569321852038654e-09
1.1184278718672878e-08
1.2542289969588884e-08
8.912178034134188e-09
2.661559987566112e-09
5.808248842938045e-10
4.20493285989648e-09
7.483792512800035e-09
8.901088037659783e-09
5.064498001955467e-09
1.2869834941742928e-09
6.461538459277318e-11
3.6613571009730814e-10
6.165120149696243e-10
7.4652041748645e-11
1.1333231157148166e-10
5.107636646300977e-10
1.0334415551374763e-09
1.6943962062662218e-09
3.208740986011277e-09
2.8950244981216668e-09
1.4052206848144583e-09
7.074636377666932e-10
1.008012562247638e-09
2.2500995104630164e-09
2.586151852665502e-09
5.740817542438172e-09
1.1076471026729042e-08
1.587271085724361e-08
1.6178095033171373e-08
1.1124792947977699e-08
6.074746592189522e-09
1.845490403210586e-09
2.9973466698663477e-10
1.4770714844680278e-09
5.577034369969252e-09
1.329462388118831e-08
1.702055844490133e-08
1.8132282595806744e-08
1.785277871426302e-08
1.3388388755401441e-08
1.0003705490428104e-08
5.927530877675367e-09
1.1768279128605758e-09
3.068877461368037e-10
1.9875230810266205e-07
1.2904373237905862e-06
3.7982622979088562e-06
4.96486196545452e-06
3.3496607836837835e-06
7.643302458874503e-07
9.866514601353351e-08
1.8239482622914202e-06
3.821090336223201e-06
3.6563629951676223e-06
1.735752928691214e-06
1.0407587749495189e-07
6.063061303096957e-07
2.4695103049992235e-06
3.699648832499864e-06
2.8797028748305096e-06
9.854361181137134e-07
1.3507927357936547e-08
6.167615876551618e-07
2.0349876504421706e-06
2.825979617162937e-06
2.695831508958415e-06
1.796487896225817e-06
8.362728797386851e-07
2.47527410135128e-07
6.36688597022139e-07
2.248451356527288e-06
4.793870477540767e-06
6.3899012888343664e-06
5.680888846075096e-06
2.9546263140046447e-06
3.2270201802299045e-07
6.426199977997998e-07
4.180303410397405e-06
8.365852627082456e-06
9.712998605431032e-06
7.4300867688186545e-06
3.165942645350668e-06
6.22756797357228e-07
9.538041324006587e-07
3.245439435217821e-06
5.152955146118851e-06
5.645151579818023e-06
5.120324469170265e-06
4.507269549121947e-06
3.894501649503913e-06
2.8761432173809372e-06
1.365605444650936e-06
5.160195630650524e-07
1.4253358833084294e-06
3.617074152709733e-06
5.540470988787372e-06
5.404948738958673e-06
3.528832557084496e-06
1.2100375707048972e-06
1.4112646788728156e-07
5.117081576430323e-07
1.41394127005609e-06
1.6415971654258031e-06
1.286537903450525e-06
7.923625200157056e-07
9.031035063475681e-07
1.5682857313812359e-06
2.0443784561317814e-06
1.7853308764687557e-06
1.0129438719658927e-06
2.0776647380988772e-07
4.535799959884461e-08
6.477998925051275e-07
1.5883504306638389e-06
2.2231290911462696e-06
2.2839145387930743e-06
1.7721405180105491e-06
1.076260575618824e-06
4.631562889637433e-07
9.67410228039067e-08
1.7279711374222077e-09
1.6057562331416256e-07
4.6660420322227564e-07
8.692403899157552e-07
1.1598908885989326e-06
1.2061735957966006e-06
9.985234876896337e-07
7.018798605443805e-07
4.013157611008894e-07
1.2203972301112318e-07
3.8015298734249315e-08
1.2924771486729936e-07
3.8036949254811546e-07
6.026724637133084e-07
6.183643665374104e-07
3.8360393314478926e-07
1.3717183004825044e-07
8.83778374579793e-08
3.524312512372007e-07
7.390405750552856e-07
9.117880383204151e-07
8.163075652485718e-07
5.423363363065846e-07
2.7062542798297916e-07
1.886850506371544e-07
2.415085899504843e-07
3.507286655002626e-07
4.320151234836611e-07
3.0758164451114366e-07
1.6756737996099412e-07
3.991722514621287e-08
3.993736869737092e-08
2.2290753123770862e-07
5.383569953713881e-07
8.168655365941722e-07
1.1180331342632393e-06
1.1306298462827314e-06
1.0539939878579608e-06
9.149736199534355e-07
7.092874893361622e-07
5.24099634314233e-07
3.392130705893213e-07
2.112083168467163e-07
5.584051104255939e-08
1.3547130636682243e-26
1.2417509907555644e-27
2.0357875402967417e-28
1.1758447402855163e-28
7.047907640474685e-10
9.624899270597705e-10
3.351825001030787e-10
2.7593435781007167e-10
2.1181385240285916e-09
3.794730709644544e-09
2.8476118726495324e-09
8.049723734342765e-10
2.2167745594496233e-10
8.321670326291894e-10
1.1145930105324737e-09
2.2259800210829423e-09
5.6673363912553775e-09
8.066890420965679e-09
5.656929528443467e-09
2.3938560197178457e-09
1.7299880674822343e-09
2.7812550750976214e-09
3.806075632100076e-09
4.864200893060183e-09
8.963083090998027e-09
1.4348503257445317e-08
1.6546855864799585e-08
1.3468254003943134e-08
1.0797774631005324e-08
9.78602241010108e-09
1.1225351995647173e-08
1.7607098534060535e-08
2.8694270268712982e-08
3.8071771107020464e-08
3.848485245483446e-08
3.126307098090584e-08
2.6145379406038725e-08
2.966238253410864e-08
3.73567409613349e-08
4.988448197759089e-08
5.987224847463076e-08
6.2239700758677e-08
5.9190669494292867e-08
5.296130376026646e-08
5.055960418230245e-08
6.012826569230647e-08
7.957199639705849e-08
9.418940874278341e-08
9.920853296090641e-08
8.452382394753577e-08
7.35343948447759e-08
6.879711027925663e-08
6.604517519735376e-08
8.533543782995852e-08
1.184720866303643e-07
1.287358650299652e-07
1.079142394992267e-07
7.884829179488515e-08
5.8640579462716375e-08
6.00865177949902e-08
7.861992537892536e-08
1.0311506463655192e-07
1.2845925751299757e-07
1.2374575653336727e-07
9.700748904386314e-08
7.238814136125973e-08
6.388200543280225e-08
7.87289124444159e-08
1.1000619925057133e-07
1.3869351659335754e-07
1.4987297792393248e-07
1.3372931613396543e-07
9.367636072689852e-08
7.550408405944823e-08
9.300592384120304e-08
1.248785321222126e-07
1.592838965672631e-07
1.611491053417769e-07
1.272490726074669e-07
8.609438093550451e-08
7.409917709449482e-08
1.0507713306338394e-07
1.3762261985166173e-07
1.4249252141391307e-07
1.2209567207057556e-07
8.662650383084033e-08
5.656139091313964e-08
6.489041031559132e-08
1.0425465555278921e-07
1.3785603013972353e-07
1.4448177353629362e-07
1.2805073328711198e-07
8.746136120831112e-08
8.737209945708555e-08
1.4953003079349535e-07
2.2072480335688406e-07
2.6298086646761386e-07
2.3829757549964785e-07
1.8072682017766814e-07
1.8496593709738955e-07
2.746751708327248e-07
3.7548280377309383e-07
3.959999510840626e-07
3.228025016081081e-07
2.390104572763087e-07
2.5928793618924915e-07
3.806621554263885e-07
4.587703588751639e-07
3.9044597530359764e-07
2.696513478460249e-07
2.0695700906849428e-07
2.7532737830289817e-07
3.7839139001900906e-07
3.8207450693110787e-07
2.5824033162545e-07
1.2766843281545917e-07
1.1068165375380193e-07
1.966099452827974e-07
2.3729237289539607e-07
1.5659176964253864e-07
4.626094428641101e-08
7.3720608441925876e-09
5.5824612185089346e-08
8.517921463347673e-08
4.500400863855719e-08
5.852854082953369e-10
4.3174685977533087e-08
1.473172656624759e-07
1.9728271645917403e-07
1.2181508155889535e-07
4.904746169191015e-08
1.2675884441231358e-07
3.277367856276781e-07
4.4686617198259767e-07
3.492484315754467e-07
1.8199456504594422e-07
2.0550647677056924e-07
4.587572177671372e-07
6.922495544868489e-07
6.270217952416837e-07
3.9888928625998707e-07
3.4284762194070296e-07
5.892730994755152e-07
9.20976024544267e-07
9.553944898512597e-07
6.906106150167833e-07
5.040501796366979e-07
6.164011250138512e-07
9.011076457278083e-07
1.0192467348613442e-06
8.219842608157081e-07
5.574047433825317e-07
5.271288743373861e-07
7.416576971121349e-07
8.97986288079171e-07
7.616756505920105e-07
5.568879723990469e-07
5.26172087118881e-07
6.76154773833978e-07
8.121624281396087e-07
7.266117117680106e-07
5.515443920936469e-07
4.951869347521762e-07
5.658443613000039e-07
6.253551772372628e-07
5.60789518848697e-07
4.4576620211361596e-07
3.653744159924195e-07
3.4535316143312673e-07
3.6194731342576093e-07
3.3913299480607075e-07
2.9145110614920493e-07
2.680024691792275e-07
2.693497727275321e-07
2.672794050685401e-07
2.3328101950447212e-07
2.24123280731733e-07
2.479041138404888e-07
2.608564861303252e-07
2.4113409075301547e-07
1.7476285086536017e-07
1.3370827240164868e-07
1.4715598333183663e-07
1.8283750986055676e-07
1.8677396965177726e-07
1.345868143854765e-07
1.0185787965361563e-07
1.12240701955314e-07
1.451592557671001e-07
1.6000877876639472e-07
1.5028757314794377e-07
1.5908198988524873e-07
1.7398501884237227e-07
1.8744276843955983e-07
1.7367729254164287e-07
1.320525252318451e-07
1.3991444249283302e-07
1.8375497918715936e-07
2.1120169456742355e-07
1.7764805085155184e-07
1.069373355879122e-07
7.2326801900943e-08
1.0056504397964464e-07
1.7421095064975088e-07
2.1963063083745808e-07
1.868360399630057e-07
1.1791388575663661e-07
8.841700411673858e-08
1.285771908595337e-07
1.8192367631362853e-07
1.9092987821859356e-07
1.5722552558922106e-07
1.1602054694738098e-07
9.576575203557106e-08
7.757234592142573e-08
5.6843826471675094e-08
3.466379631309088e-08
3.346697402792308e-08
5.101245403147998e-08
6.175091956999322e-08
4.638550912231684e-08
1.1360324334760076e-08
1.0537967838710203e-08
5.433882109112364e-08
1.2223814382716772e-07
1.484870413030408e-07
1.0955075476586314e-07
4.770874253731909e-08
2.8177997384776796e-09
1.5837918972718147e-08
6.349188442984464e-08
9.630953406335924e-08
8.611517363995656e-08
4.750238427644694e-08
1.6690496921016873e-08
1.832329351741571e-08
4.4004985799783624e-08
5.238971000350714e-08
3.8439076721530394e-08
1.3310198697637356e-08
1.4439403379706933e-10
8.988776004059965e-09
2.0538497403990096e-08
2.696792448403235e-08
1.88093690573465e-08
8.146839344253672e-09
3.4895909878792047e-09
6.046389022724927e-10
3.955148241197342e-10
2.7126554153417943e-09
6.588908589256327e-09
1.0760481466542528e-08
1.1877827541879992e-08
1.4122346253594106e-08
1.727232223562593e-08
1.0962984998581166e-08
4.745155871688847e-09
4.8195041309460545e-09
1.1870753000785704e-08
2.034725517406833e-08
2.428303372136346e-08
3.9408317819498497e-08
6.142741603667118e-08
7.992152268439372e-08
7.605941436227922e-08
4.786329934865909e-08
2.2573952214639544e-08
5.208579658139333e-09
2.221064093820517e-09
1.092942272514695e-08
3.350002800789849e-08
7.088402171648651e-08
8.91917627611013e-08
9.379715312275313e-08
8.955469297501378e-08
6.76465403681005e-08
5.000800930804467e-08
2.9251883865130675e-08
6.218479390497976e-09
8.57413472502073e-10
3.812553474951879e-07
2.4452386042347575e-06
7.201587258761207e-06
9.386261709680114e-06
6.258713904762177e-06
1.3810833607807975e-06
1.982495994710855e-07
3.506504589936041e-06
7.22755267566802e-06
6.7278015728778315e-06
3.057048592011891e-06
1.2209545734084955e-07
1.24213924625366e-06
4.719387370089909e-06
6.74250754904273e-06
4.9238849256627286e-06
1.4529530661937767e-06
3.676651191574403e-08
1.4801566561832168e-06
3.994159932975958e-06
4.859223153167274e-06
4.179828319536324e-06
2.730346647106556e-06
1.6938085835474114e-06
1.0952987380500217e-06
1.4865527774691853e-06
3.366624592006304e-06
6.957092121695813e-06
9.677434372447701e-06
9.064242962789881e-06
5.11964064088936e-06
8.683298503057734e-07
1.1765864872774229e-06
6.7433068262761805e-06
1.3392079182366676e-05
1.5360103957766273e-05
1.1509038668491074e-05
4.770746268410517e-06
1.3371769200160102e-06
2.6471629924826083e-06
6.748053869044322e-06
9.371419636030738e-06
9.109807502092213e-06
7.482441396104592e-06
6.621511553010357e-06
6.410265398053718e-06
5.591204221850716e-06
3.342777583880808e-06
1.5523273129139531e-06
2.5117639202663637e-06
5.726420979746317e-06
8.821240940313703e-06
8.605957897410214e-06
5.58836952202747e-06
1.8962721455170181e-06
3.9057505369048844e-07
1.2600330727999963e-06
2.9059099581568395e-06
3.16964483802849e-06
2.341287240096935e-06
1.289501497583692e-06
1.372301987757993e-06
2.4350492443297405e-06
3.242037844379293e-06
2.785010705704545e-06
1.54734056166376e-06
2.89363306316547e-07
1.1821607799736124e-07
1.0934171513788256e-06
2.4679308908455127e-06
3.306894487786805e-06
3.1999702885963363e-06
2.3486896140049978e-06
1.3629832514173213e-06
5.907896083812524e-07
1.799866577011035e-07
9.935379071591625e-08
2.7893240591168963e-07
6.834407972073261e-07
1.242078146126947e-06
1.6246236942516546e-06
1.630121423500129e-06
1.2613836836499704e-06
8.366639418598744e-07
4.573390331546698e-07
1.250064831872867e-07
1.1859762300384705e-09
1.1540234133219578e-07
4.753088354621071e-07
8.23903895495731e-07
8.815280508905569e-07
5.471749670799645e-07
1.5562402336864888e-07
7.473890704329672e-08
4.895245544770513e-07
1.0858240282036013e-06
1.350423690073943e-06
1.1355495978059163e-06
6.786372311493833e-07
2.5201178670271967e-07
1.6393743169925592e-07
2.941880336218895e-07
5.15458848366287e-07
6.760493071423414e-07
4.82358345101572e-07
2.573111705531007e-07
4.8760546305773113e-08
3.6207333663503637e-08
2.8511088868957665e-07
6.946240595278065e-07
1.0291208638949085e-06
1.3764913658312976e-06
1.3107170111836666e-06
1.159144143550178e-06
9.612284637493912e-07
7.193283359796034e-07
5.216107622168642e-07
3.425992855948799e-07
2.308243171903447e-07
5.785277032508457e-08
1.4622461126448474e-26
1.338635158231508e-27
2.8746435459780023e-28
3.3615724812321714e-28
1.3658743143517802e-09
1.9461837310407767e-09
8.255632676109376e-10
2.558896359215235e-10
3.3725892471957655e-09
6.451472453545461e-09
4.6105464994241194e-09
8.947296681979022e-10