# vtk DataFile Version 4.1 
COMMENT
ASCII
DATASET STRUCTURED_POINTS 
DIMENSIONS 400 400 1 
ORIGIN 0 0 0
SPACING 0.002506265664160401 0.002506265664160401 0 
POINT_DATA 160000
SCALARS U double 1
LOOKUP_TABLE default
1.2548581006438243e-06
4.129570540049532e-10
1.8679518559898093e-09
3.344205063877343e-09
4.571705762019232e-09
5.797674072107758e-09
6.412000517000265e-09
5.9739910394552636e-09
4.970406699690562e-09
3.4033718085078754e-09
2.487816468078526e-09
2.017058348995447e-09
1.82997590352125e-09
1.459100095128637e-09
9.006691531963848e-10
5.231282299475669e-10
2.1831575923121339e-10
4.280578541918417e-11
5.371058474860587e-10
2.4631188246180846e-09
5.885301338761092e-09
1.0054539407821982e-08
1.1796528860067164e-08
1.1422204773700966e-08
8.099557820507201e-09
4.090838175576255e-09
1.2543055771568822e-09
6.746670042359743e-10
1.7290068271506229e-09
3.5947709670114853e-09
4.39589161684468e-09
4.269568695089886e-09
4.3795223522484185e-09
4.47957356612017e-09
5.48038096656509e-09
5.575230441531761e-09
5.045990051324845e-09
4.488413930711109e-09
4.6418880658428945e-09
5.501546893228668e-09
5.39649844632945e-09
4.348529030900241e-09
3.0950997979650006e-09
2.5226058479633053e-09
3.1901242355883435e-09
4.282027204500603e-09
3.790968261813199e-09
2.5103080603532514e-09
9.548129803625561e-10
5.987802007519308e-10
1.914590836321419e-09
4.2017145437457355e-09
5.673027044163419e-09
5.933325694937173e-09
5.029280970585483e-09
3.6778578015649286e-09
3.1702897762984764e-09
3.6450613377783025e-09
3.853102977554917e-09
4.115953365018115e-09
4.0816330977833944e-09
5.0070516066854215e-09
6.599076439732133e-09
9.43137503051166e-09
1.0688247742769568e-08
1.1070370527391264e-08
9.534247684587204e-09
7.53964588052852e-09
6.480003348733733e-09
5.317954421051359e-09
3.976574519201454e-09
2.0496432269658205e-09
7.668345676855228e-10
5.13350247225767e-10
1.22010017362215e-09
2.245126170009897e-09
2.3210665985438688e-09
2.267994858436776e-09
2.439414342153586e-09
3.647267298458941e-09
6.059276905638948e-09
8.461442120134889e-09
9.920831220138955e-09
9.628128999946614e-09
7.89672790611272e-09
5.887714088171805e-09
4.596939112401373e-09
4.617481995733631e-09
5.6582393771546375e-09
6.338681668654162e-09
5.631828733265543e-09
3.900192541978392e-09
2.233717148562361e-09
1.2038364249846584e-09
9.347714148091416e-10
7.182428238540027e-10
5.597663970033622e-10
2.3160863324338414e-10
2.0683351368611398e-10
2.490480226689055e-10
3.6904384856545317e-10
7.342864815428945e-10
2.369081422631222e-09
5.663948923447419e-09
8.90338445386906e-09
1.0453625071077974e-08
8.425226943638415e-09
4.091432940368249e-09
6.884337203261318e-10
1.0107648440800318e-09
4.97361311390816e-09
8.972426219085946e-09
9.71025137786289e-09
7.547227400685314e-09
3.542724265823258e-09
2.1874213785294435e-09
3.139761000341851e-09
4.41171392218082e-09
3.752622139208486e-09
1.5883348568491222e-09
4.990728140611257e-28
4.302355461052863e-29
3.828755528335779e-30
8.258700310358232e-30
1.834204259838985e-11
5.5397784542898215e-11
1.0862232438077997e-10
2.3089903345710386e-10
4.477513955552411e-10
6.071666191548615e-10
6.30954311441951e-10
5.334269761776793e-10
3.2282762628340647e-10
1.8081136890802445e-10
2.0699107108438708e-10
4.501344439183638e-10
7.267605277454631e-10
7.698287027714749e-10
5.669093269019013e-10
2.386297206150631e-10
1.8959357506242356e-11
3.664705297437566e-11
1.9678025733780358e-10
3.086217454973857e-10
2.520964184596516e-10
1.539114176631549e-10
1.3331622172048597e-10
2.6182934480822184e-10
6.848121030337423e-10
1.4527699275911237e-09
2.1843889802060666e-09
2.5538389280449474e-09
2.076962509470868e-09
9.25452579549508e-10
9.941581852586051e-11
3.9338982232946096e-10
1.697399610839565e-09
2.8827931828180842e-09
2.927584485144486e-09
2.0804113498181368e-09
1.081289633509312e-09
4.845234815817633e-10
2.8568530865526583e-10
1.1521858866278077e-10
2.476010031835305e-11
3.0926576494973483e-10
7.535895690050193e-10
8.820152390070637e-10
6.566791083316369e-10
1.3244016164993364e-09
3.5927924027228444e-09
5.81471541970471e-09
6.0866803414721095e-09
3.859606176998366e-09
1.0010200548102223e-09
3.591968149427675e-11
1.71285048952678e-09
4.128931943956373e-09
5.009494955954845e-09
3.8290332397996626e-09
1.7110991121809706e-09
4.494785345098961e-10
2.3999288790401714e-10
3.1255436320960347e-10
2.920870343683638e-10
2.6857241110593357e-10
3.273978514258308e-10
2.711047225073305e-10
9.83079712799948e-11
5.019657073179066e-10
1.6641858215347352e-09
2.926539825494443e-09
2.9990286334458128e-09
1.5568030037736678e-09
2.4933385783472166e-10
6.534064459148386e-10
2.86031863722965e-09
4.6827191685297534e-09
4.291871438010072e-09
2.236812077820345e-09
3.7663803237159776e-10
4.1218832127977875e-10
1.8872128811139887e-09
3.275773852384117e-09
3.3864230889256585e-09
2.197746668457908e-09
8.327532234814407e-10
1.3531579543595387e-10
2.107227821814713e-10
5.221649750941674e-10
6.143179327281915e-10
5.931924270594003e-10
6.576947452366175e-10
8.695773885354874e-10
8.644297208880924e-10
5.924642257852249e-10
1.9070965007966201e-10
5.939104099513853e-11
4.637049228476592e-10
1.164536901203476e-09
1.694088247648202e-09
1.700533828271575e-09
1.0886808640804225e-09
5.297204236598485e-10
1.9578932053421792e-10
2.1361069338274312e-10
4.2995060247989175e-10
7.024064771936202e-10
8.217103389697085e-10
7.227550145421391e-10
4.6173169889603063e-10
2.477087463532326e-10
2.5877992982326155e-10
6.076417855646e-10
1.0273113035192513e-09
1.0928305403617848e-09
7.74062652015024e-10
3.376021142923944e-10
1.2306953528637527e-10
1.5416152564927054e-10
2.7786024342667483e-10
2.636244476298435e-10
1.7050395712217965e-10
8.926183888047675e-11
2.651692414868244e-11
1.621152027004904e-12
1.94102552890174e-11
6.984655372065303e-11
1.348810343559165e-10
1.7617139518101874e-10
1.4978037545386655e-10
1.1015391255143436e-10
4.4394469307312276e-11
1.2179687310826994e-11
5.052021155408439e-11
2.374292459093561e-10
4.428695275969773e-10
5.46352033853699e-10
3.7644202153821e-10
1.895459407520665e-10
7.364138491195436e-11
1.516138000928026e-10
2.8107067798884235e-10
3.3821255436558537e-10
3.130412560336706e-10
2.107025652869912e-10
9.773033830211118e-11
1.2281243858050836e-10
1.6884005307251637e-10
2.014934866611583e-10
2.19405996766764e-10
2.168101531181213e-10
1.3920510734558528e-10
7.529565738950973e-11
2.5477809862375206e-11
2.4287513039999026e-11
4.399414305055595e-11
4.0586372828717545e-11
3.378188338730238e-11
2.3415022201817342e-11
2.5698581469347137e-11
6.22049001096491e-11
8.63675203234862e-11
7.830179133835724e-11
3.685898794139021e-11
3.1440395813535524e-11
3.6134630455451545e-11
5.286777034844485e-11
6.13472233400031e-11
5.453427041692857e-11
5.914788858999404e-11
5.948546087274667e-11
6.16856088836097e-11
6.227520417162964e-11
2.55571611133053e-11
1.2106751012787077e-11
3.260815794722845e-12
9.76397591317549e-12
3.906598386125356e-11
7.222138959196708e-11
5.1089444848024437e-11
1.4369424211639268e-11
6.048120407300535e-11
3.254526963332803e-10
7.765890038575077e-10
1.135794606315314e-09
1.0987286717900683e-09
7.784318312414237e-10
2.2221927753240198e-10
1.4748049875769068e-11
2.0807020064132603e-10
6.123012687356114e-10
7.517875751357801e-10
6.332182569861834e-10
3.287562108968297e-10
1.107838451899256e-10
7.994721377358999e-11
2.1214763334930145e-10
3.727467655972592e-10
4.265172262917166e-10
3.6122761086411925e-10
1.7025940626671503e-10
1.2950649594574319e-11
1.016463313279057e-10
4.756486689517236e-10
9.093615182333699e-10
1.1006388807430936e-09
1.0054980068936737e-09
5.742155914873439e-10
2.2703705274085755e-10
1.191097767597522e-10
2.896046170411536e-10
5.10630380254519e-10
5.627834873145054e-10
3.95871583024788e-10
2.374809374473923e-10
1.9359276712208697e-10
2.3254904419633068e-10
2.773392976810199e-10
2.692950697183262e-10
2.6851309207905364e-10
2.5992312670573284e-10
1.6251099473995137e-10
2.5512142986210583e-11
3.372735716763197e-11
3.1485107717824307e-10
8.02570841894671e-10
1.3401335981059143e-09
1.645033869265598e-09
1.3519372910391638e-09
9.062474125615915e-10
3.5953197585658167e-10
7.382458136439679e-11
4.94681339231898e-11
2.108927305532782e-10
3.837036119031136e-10
5.079447971401973e-10
5.295600382110025e-10
4.923834159405475e-10
4.854287377134381e-10
5.517876902485232e-10
6.676887669578643e-10
6.597428715017261e-10
5.529155066634874e-10
3.0436595628052235e-10
1.1605758585574571e-10
9.248068107014037e-11
3.6908108632524183e-10
7.24789154395946e-10
1.1843058731014877e-09
1.4719111900272346e-09
1.3302205492503659e-09
9.326592602447145e-10
5.109533462037919e-10
2.199426956100683e-10
7.023429337901624e-11
1.6198652770540764e-11
5.1799401490987135e-12
6.160390602820937e-11
2.310586970322593e-10
5.360196324991298e-10
8.490129220023985e-10
1.2515848927780263e-09
1.2753901780257695e-09
9.859685703946122e-10
5.72716323764464e-10
1.5966751810654402e-10
4.850798442729204e-11
1.9465386279880003e-10
4.364787061885523e-10
5.524778740710811e-10
5.992675946904702e-10
5.22178207179847e-10
5.31552304781257e-10
5.34910272805359e-10
4.998834049756608e-10
4.629097698735282e-10
2.6999553922219497e-10
7.280537006234581e-11
7.093793252692719e-31
5.133803379858658e-10
2.6069535248550873e-09
1.1792179423998475e-08
2.1111607356170017e-08
2.8860687413644214e-08
3.6600093669936394e-08
4.0478270529714666e-08
3.771316374601463e-08
3.137764360738159e-08
2.1485120659727535e-08
1.5705318138413624e-08
1.273347269832323e-08
1.1552441315186679e-08
9.211142173797009e-09
5.685827620286634e-09
3.3024523247317e-09
1.3782039380114328e-09
2.702283254408197e-10
3.3906915228702317e-09
1.554940456810314e-08
3.715327519198537e-08
6.347322729036491e-08
7.447021958956049e-08
7.21071518397145e-08
5.1131638520662174e-08
2.5825021992001996e-08
7.918296379495454e-09
4.259100329535234e-09
1.0915034381480172e-08
2.2693402988546394e-08
2.7750791599934042e-08
2.6953328563657392e-08
2.7647454190814505e-08
2.8279066757156256e-08
3.459705637614372e-08
3.51958309235136e-08
3.18547931875919e-08
2.8334875029246157e-08
2.9303740759170437e-08
3.473067459766893e-08
3.4067515035994075e-08
2.7451796682238258e-08
1.9539032569683014e-08
1.5924939756784286e-08
2.013891163751115e-08
2.7031977795357697e-08
2.3931975436431566e-08
1.5847305144547917e-08
6.02763178541975e-09
3.7800350903921344e-09
1.2086606297185337e-08
2.65249725946598e-08
3.581321037127185e-08
3.7456447794070606e-08
3.174931055566175e-08
2.3217921250451547e-08
2.001369882649886e-08
2.301088069734284e-08
2.432422522281443e-08
2.598357148524319e-08
2.5766911324643406e-08
3.160897896908989e-08
4.165926073547953e-08
5.953925751254443e-08
6.747375994018823e-08
6.988606003443729e-08
6.018868152783252e-08
4.7596974585563575e-08
4.090756510203977e-08
3.357167504108611e-08
2.5103687802743795e-08
1.2939177532901059e-08
4.8409442575704775e-09
3.2407249700943275e-09
7.70236134109581e-09
1.4173240354871133e-08
1.465264412319439e-08
1.431760792850883e-08
1.539976071648135e-08
2.3024806690170208e-08
3.825156425839626e-08
5.341617523302646e-08
6.26291418635591e-08
6.078134418759498e-08
4.985119505771939e-08
3.7168506619853835e-08
2.9019982844209342e-08
2.9149667860107092e-08
3.571985741783747e-08
4.0015416515524857e-08
3.55531298598199e-08
2.4621496584974524e-08
1.4101216427953433e-08
7.59969004289017e-09
5.901111534811652e-09
4.534189798161444e-09
3.5337451379286616e-09
1.462120423818858e-09
1.3057177552310571e-09
1.57221341603988e-09
2.3297341757776475e-09
4.635471685849269e-09
1.495575655022735e-08
3.575590117030262e-08
5.6206109715407666e-08
6.599261221539362e-08
5.318755271379568e-08
2.582877667824821e-08
4.34600812948405e-09
6.38084989109409e-09
3.139788535592576e-08
5.6641962963218306e-08
6.129977393834516e-08
4.7644835907957345e-08
2.236483775445283e-08
1.3808956204516868e-08
1.9820973943081124e-08
2.7850676113995135e-08
2.368990048331141e-08
1.002698734300675e-08
3.1505930681120988e-27
2.716030789544708e-28
2.4170522391133774e-29
5.213628796507242e-29
1.1579134474438841e-10
3.4972026336070023e-10
6.857210663340082e-10
1.4576407965885227e-09
2.8266064656871545e-09
3.832977648956994e-09
3.983146795250963e-09
3.367467203460125e-09
2.0379761287478396e-09
1.1414427503713114e-09
1.3067123981625954e-09
2.84165039403247e-09
4.587961147913586e-09
4.859845910758177e-09
3.5788376871324976e-09
1.5064437942381332e-09
1.1968838744983256e-10
2.3134890904649325e-10
1.2422526277575705e-09
1.948295929246165e-09
1.5914576112286216e-09
9.716262475748687e-10
8.416109877866733e-10
1.652900529821449e-09
4.323145248527045e-09
9.17118050607684e-09
1.3789812999621292e-08
1.6122110836491618e-08
1.3111641228901255e-08
5.842282728784395e-09
6.276013837730377e-10
2.4834276930685467e-09
1.0715501419943736e-08
1.8198763712813764e-08
1.8481526393218943e-08
1.3133413387562248e-08
6.826065311461072e-09
3.0587446949616362e-09
1.803500667140138e-09
7.273625742197928e-10
1.5630785374578394e-10
1.9523615548725936e-09
4.75733000358942e-09
5.568067463687851e-09
4.145544674830336e-09
8.360805146617757e-09
2.2680912524716315e-08
3.6707673866848646e-08
3.842455920531766e-08
2.4365279222370838e-08
6.319332083153713e-09
2.2675709102199676e-10
1.0813041157466319e-08
2.6065503860008463e-08
3.162440357057957e-08
2.417227555377537e-08
1.0801984900403439e-08
2.8375097083902038e-09
1.5150493229110088e-09
1.973122122447967e-09
1.8439140739364667e-09
1.6954687830639284e-09
2.066827469169019e-09
1.7114549929370332e-09
6.206076631074113e-10
3.1688555925069584e-09
1.0505826335664915e-08
1.847493156905856e-08
1.893254562739378e-08
9.827930141481661e-09
1.5740178627391806e-09
4.124884708520543e-09
1.8056884320579e-08
2.956150312462928e-08
2.7094123384101394e-08
1.4120754383922541e-08
2.3776754424295266e-09
2.6021005977331766e-09
1.191377220671723e-08
2.0679608468435238e-08
2.137812521352282e-08
1.3874138650761844e-08
5.2570816510700374e-09
8.542340818716193e-10
1.3302702894830996e-09
3.296371400308567e-09
3.878123123399267e-09
3.744760075272377e-09
4.151956281518568e-09
5.4895486496513e-09
5.457051976721246e-09
3.7401630188470064e-09
1.203929536200856e-09
3.749292624148571e-10
2.927319369863244e-09
7.351596370550937e-09
1.0694597139801092e-08
1.0735287397935387e-08
6.872725356140053e-09
3.3440681355480813e-09
1.235996950156323e-09
1.3485013626966689e-09
2.714231971044326e-09
4.43421664272864e-09
5.187369107300091e-09
4.562674773306377e-09
2.9148626190071005e-09
1.56375870851512e-09
1.6336499005691085e-09
3.835977323462483e-09
6.485305912224142e-09
6.898921816773887e-09
4.886574377550262e-09
2.1312458845721303e-09
7.76924756958493e-10
9.732051524262933e-10
1.754101870868088e-09
1.664232821116436e-09
1.0763731669203439e-09
5.63500400944149e-10
1.6739849388041577e-10
1.0234158613199796e-11
1.2253485672007453e-10
4.409337911899493e-10
8.514894818724637e-10
1.112151094627594e-09
9.455474218364905e-10
6.953898179424158e-10
2.802575161808001e-10
7.688905773289528e-11
3.189286689985088e-10
1.4988653263679501e-09
2.7957877576441626e-09
3.449061704245795e-09
2.37643804709252e-09
1.1965831642135993e-09
4.6489015288530925e-10
9.571216346479108e-10
1.7743689994156947e-09
2.135099527184805e-09
1.9761958245475394e-09
1.3301426623998108e-09
6.169611281634942e-10
7.753017330699595e-10
1.0658691193802372e-09
1.2720067382124139e-09
1.3850864904673565e-09
1.3686992083415964e-09
8.787868901933115e-10
4.753333973452574e-10
1.6083867700564826e-10
1.533244610196921e-10
2.7773029952226005e-10
2.5621741215162495e-10
2.1326140120060805e-10
1.4781652007536763e-10
1.6223238444665623e-10
3.9269285275888076e-10
5.452288787821627e-10
4.94310798065577e-10
2.3268683172862273e-10
1.984798416543151e-10
2.2811404072551687e-10
3.337485555082791e-10
3.8727843143799437e-10
3.44268991436352e-10
3.733942673989811e-10
3.7552532496024684e-10
3.8941462302767616e-10
3.9313667475057276e-10
1.6133961292939066e-10
7.642861871769745e-11
2.0585179857113913e-11
6.163893115904419e-11
2.466193599100146e-10
4.5592587495660685e-10
3.2252217763992806e-10
9.07126315808658e-11
3.8181134482742117e-10
2.054547914005268e-09
4.902522965368083e-09
7.1701493502265965e-09
6.936156086942905e-09
4.9141565366985805e-09
1.4028464297570699e-09
9.310285472908679e-11
1.3135248271426887e-09
3.865392140230637e-09
4.745954209851015e-09
3.9974388402938505e-09
2.075402646603568e-09
6.993665150260702e-10
5.046981731589547e-10
1.3392652218576523e-09
2.3531102932569176e-09
2.6925574359586278e-09
2.280391106736978e-09
1.0748293436378093e-09
8.175605981859231e-11
6.41682371505618e-10
3.0027189561010698e-09
5.740701587089542e-09
6.9482150308815154e-09
6.347600913664951e-09
3.6249613506704368e-09
1.4332605271549368e-09
7.519272267106351e-10
1.8282428399944162e-09
3.2235547420547155e-09
3.552791704987295e-09
2.499094781764052e-09
1.4991916494952124e-09
1.2221303444045807e-09
1.4680571371521698e-09
1.750813196332268e-09
1.7000308492608197e-09
1.6950943084188883e-09
1.640866779693606e-09
1.0259144539517691e-09
1.6105541832858712e-10
2.129171830326697e-10
1.987621031034372e-09
5.066543518101841e-09
8.46011945667609e-09
1.038492211816417e-08
8.534634902290135e-09
5.721042572479957e-09
2.269686745068139e-09
4.660466524118436e-10
3.122870159217968e-10
1.3313431552996027e-09
2.4222796870748024e-09
3.206600944321335e-09
3.3430556394370455e-09
3.1083636163071864e-09
3.0644594796843546e-09
3.4833764192045515e-09
4.215047467153989e-09
4.164885882634208e-09
3.4904962030897416e-09
1.9214295890484525e-09
7.326590733795267e-10
5.838206059410473e-10
2.3299692537553625e-09
4.575516079709795e-09
7.476395766692658e-09
9.29201723980993e-09
8.39753944404426e-09
5.887777729919909e-09
3.2255935914016368e-09
1.3884746126165447e-09
4.4338155000480153e-10
1.022603549897427e-10
3.270040576681687e-11
3.8889884167750706e-10
1.4586487355884887e-09
3.383834364331682e-09
5.359727381325038e-09
7.901120991249406e-09
8.051401200014271e-09
6.2243136787675135e-09
3.615496634577184e-09
1.007963891392265e-09
3.0622569528701605e-10
1.2288289274358867e-09
2.7554431885519646e-09
3.4877334755414404e-09
3.783111955973544e-09
3.2964549330441607e-09
3.3556326042991454e-09
3.3768310957448884e-09
3.155710241487318e-09
2.922299654547556e-09
1.704452837999006e-09
4.596124809388409e-10
8.370731046077556e-11
1.584082147803079e-09
7.351565017556997e-09
3.405460195631896e-08
5.86428629710191e-08
7.834147244337051e-08
1.0292971499848263e-07
1.1592250705829962e-07
1.0980132089349256e-07
8.910213643794834e-08
5.605013190428108e-08
3.862764005342486e-08
3.156096863390181e-08
3.082237622926858e-08
2.6228364962044555e-08
1.6304193969714622e-08
1.239623853068796e-08
7.8247313469499e-09
2.7380066408571114e-09
6.831662499195017e-09
3.904627519910858e-08
1.0478175383895026e-07
1.8706883948253513e-07
2.2523832743956594e-07
2.190411839128867e-07
1.5746029091778304e-07
7.929744994671166e-08
2.6814638320587107e-08
1.710150896763997e-08
3.954740545569064e-08
7.729591298529562e-08
8.869348158596582e-08
7.6086030909753e-08
7.251369294309667e-08
7.10091815303873e-08
9.346234617845771e-08
9.819694407928713e-08
8.782593119242017e-08
7.956373094742185e-08
8.905007094209115e-08
1.1373434181628037e-07
1.199610623073815e-07
9.758276195804302e-08
7.112866161930281e-08
5.606204237054798e-08
7.129101648362043e-08
9.582239447817056e-08
8.734231602194176e-08
6.181640800309546e-08
2.7888979371032084e-08
2.0397167762259767e-08
4.728007515541951e-08
9.481478502013819e-08
1.2719955611975403e-07
1.340297282573615e-07
1.1443500351525388e-07
8.716274899036762e-08
7.647102850695419e-08
8.896848636665873e-08
9.525200943645984e-08
1.0101482711032133e-07
9.502949374151362e-08
1.0848220058400761e-07
1.394223325997184e-07
1.9950475028661745e-07
2.284209937614299e-07
2.2783713948608278e-07
1.9579250190586415e-07
1.5445830074858005e-07
1.3485074639023747e-07
1.1410274371349657e-07
8.308471443752345e-08
4.2463856760616915e-08
9.491473074118709e-09
4.98647629951809e-09
2.302425194323784e-08
4.6297438465389436e-08
4.891868630028526e-08
4.816258836183591e-08
4.981083640472536e-08
7.519829740233368e-08
1.2483841779334366e-07
1.737666992893354e-07
2.014928232805454e-07
1.934451255856639e-07
1.5890776385987976e-07
1.2053150824754347e-07
1.01687461038203e-07
1.070333899403303e-07
1.3028527120596406e-07
1.412888169830366e-07
1.2090992398055708e-07
8.235170541986054e-08
4.954789002228502e-08
2.8502780119024295e-08
2.577139962814366e-08
2.1381253124742538e-08
1.629689150407101e-08
7.8368598017841e-09
8.043670072920687e-09
1.0503930884693463e-08
1.0582364662201508e-08
1.1848843605878315e-08
3.9169244693923937e-08
1.0791043053232013e-07
1.81582989794975e-07
2.2060707021019925e-07
1.8219319552378581e-07
8.942764968715546e-08
1.2914737801481324e-08
1.6855485086359985e-08
9.891788621112894e-08
1.846048313146718e-07
1.9614140537366106e-07
1.4873259950147573e-07
6.23157102028185e-08
4.228680391429227e-08
7.37634794962841e-08
1.0917030269082349e-07
9.322803663436764e-08
3.915488372348697e-08
9.276535037382215e-27
8.099750623662382e-28
6.466971827307896e-29
1.216318787334933e-28
4.742586006378498e-10
1.0058598693481435e-09
2.1476421293514768e-09
4.860523566461591e-09
9.900761920080267e-09
1.4113620387255678e-08
1.540261284363194e-08
1.3202844020955636e-08
7.248721154664653e-09
3.194677149064672e-09
4.56178054253106e-09
1.0843911188210523e-08
1.7686974916440206e-08
2.0308278558555897e-08
1.5138654840357467e-08
5.8601947925991895e-09
4.665737732595866e-10
9.965371709608951e-10
5.074560159475344e-09
6.364568104591388e-09
5.069455294894151e-09
2.7608474699133646e-09
1.2409526532203042e-09
2.9340884708955104e-09
1.1671699669433865e-08
2.8532623349511904e-08
4.833451886619101e-08
6.14817165657515e-08
4.9977123552471226e-08
2.3145606574815356e-08
2.41464852108635e-09
8.39242136782279e-09
3.9578799763063566e-08
6.741659604098999e-08
6.818899052881197e-08
4.4220525574966686e-08
1.9598625682765666e-08
9.687698631025636e-09
8.3650241267019e-09
4.697002916759371e-09
5.939671667525399e-10
6.200956257052948e-09
1.7478574130419764e-08
2.0573323404981674e-08
1.3478895053782326e-08
2.5831942929959915e-08
7.543106010434964e-08
1.3207250405613234e-07
1.4331903819503836e-07
9.215014856658925e-08
2.4135655705709018e-08
8.903885551696483e-10
4.00962898905404e-08
9.511962414372726e-08
1.1468323321884787e-07
8.436747549297803e-08
3.584248897520253e-08
9.731465047787396e-09
7.895819905766518e-09
9.191789568748517e-09
5.719773750320392e-09
3.92455085323625e-09
6.2742455582668035e-09
6.408709446941568e-09
1.354363803104073e-09
9.262567568582765e-09
3.6735162534603054e-08
6.91002305638124e-08
7.225838292757619e-08
3.832548887351182e-08
6.687535417648247e-09
1.5414387053643165e-08
6.711301946673743e-08
1.1084010121868204e-07
1.0228797536439306e-07
5.322623257444208e-08
9.094312946699802e-09
8.677315825789169e-09
4.3380258059976e-08
7.436134969852611e-08
7.718995178037863e-08
4.964230555593293e-08
1.874059745362176e-08
3.2949983545352007e-09
4.981880942844045e-09
1.1315339733542473e-08
1.2329618217046097e-08
1.3136127037584167e-08
1.5048506533043564e-08
2.13607437824679e-08
2.187122143239046e-08
1.477818955336614e-08
4.652197456479017e-09
1.9802776014398197e-09
1.1629376246859396e-08
2.782841602787089e-08
4.031888288415252e-08
3.942861143817546e-08
2.482757095910691e-08
1.1739266105631603e-08
3.7170281796710238e-09
4.7640508033634026e-09
1.0477063130327663e-08
1.7339512782882505e-08
1.871320719236213e-08
1.604413079134276e-08
9.916254295007766e-09
4.975174858146559e-09
5.042841896106488e-09
1.3128583711542767e-08
2.1936297920769012e-08
2.448544459217605e-08
1.8701345638280742e-08
8.156450701805193e-09
2.472228800665995e-09
3.049369233919621e-09
5.944946355729092e-09
5.902047442615607e-09
4.4198739070642874e-09
2.319756629021344e-09
7.431223057635465e-10
1.0603895273264596e-10
3.364765792438345e-10
1.4035090376412669e-09
3.215084752902307e-09
4.155450985031275e-09
3.733874900025358e-09
3.11117721029942e-09
1.2062912057359855e-09
3.422454847837165e-10
1.1027585479008855e-09
5.118286585057193e-09
9.695531724155235e-09
1.3099964135892364e-08
9.073740679979854e-09
4.7184872927991466e-09
2.174667448689346e-09
4.116208610294456e-09
7.330975939780625e-09
8.967763290799214e-09
7.94227138919887e-09
5.092632163329944e-09
2.259567179724147e-09
2.899744482953649e-09
3.658052818089869e-09
4.2248599750732305e-09
4.773456909117985e-09
4.501270323085155e-09
2.900995119630005e-09
1.6575213960037938e-09
6.522790932633563e-10
6.544256311041395e-10
1.148793637331204e-09
1.0051460130169978e-09
7.367651763484208e-10
5.330657443436846e-10
4.4693083058487775e-10
9.42898907015894e-10
1.435672978842504e-09
1.1851327860840282e-09
4.202703086985705e-10
7.22432829553269e-10
9.859233433927233e-10
1.4840871621668227e-09
1.3749400139636628e-09
1.1175957450450207e-09
1.2902218379980226e-09
1.0622205592170151e-09
1.1594489515814544e-09
1.1442273126401354e-09
1.9650765057989694e-10
5.7547192833532156e-11
7.179032300237846e-13
1.2367076804017583e-10
4.882773854274607e-10
1.0715799899418495e-09
8.251434011004037e-10
2.2719979183976494e-10
7.15151582261821e-10
5.5469028793878995e-09
1.478235182685892e-08
2.3449715464896733e-08
2.28418958900547e-08
1.63045710935839e-08
4.278405040899885e-09
3.1369386996165853e-10
5.0399369378586055e-09
1.4138231366887282e-08
1.612696611936302e-08
1.2355599046129263e-08
5.640426874338085e-09
1.4379217237545686e-09
1.2523723258248707e-09
4.20099195428587e-09
7.200090948237482e-09
8.210040148048991e-09
7.647911870873613e-09
3.6808084227782997e-09
3.6258092300829833e-10
1.7447532822219551e-09
9.486861360491951e-09
1.799690557312776e-08
2.2330253291416418e-08
2.0837286487632022e-08
1.177975509856508e-08
4.9524164802629626e-09
2.8198629139386107e-09
6.261377084312971e-09
1.0862052870573095e-08
1.1968836865182951e-08
7.645505466406705e-09
4.243622431531351e-09
3.6763606886909134e-09
4.47761806869319e-09
5.128511665005127e-09
4.799176683589118e-09
4.6323422938630276e-09
5.166506621127731e-09
3.64269434626906e-09
8.495625442672901e-10
3.031448513627953e-10
5.170202394794479e-09
1.451941653469777e-08
2.5849937449466893e-08
3.2442423664443295e-08
2.6011886734176516e-08
1.7613642991245468e-08
6.70015153031513e-09
1.2724216213171222e-09
1.36539833057342e-09
5.046389401024011e-09
8.289188443373332e-09
9.925642551603607e-09
9.195548238517066e-09
7.312792996239908e-09
6.994061742042073e-09
8.233555585633444e-09
1.0734087959116822e-08
1.1587401743031388e-08
1.0571432216554044e-08
6.572956476432587e-09
3.10368924893412e-09
1.81008384501947e-09
6.7271133521991856e-09
1.4437431143755822e-08
2.4241028021755053e-08
2.9090851391116535e-08
2.57349763189498e-08
1.6146187154803365e-08
7.558207131842184e-09
2.711432635843963e-09
6.163271378452055e-10
1.4184414233900444e-10
1.0379736999785e-10
7.995728127665974e-10
3.3600653658190427e-09
9.037818712910057e-09
1.4747841245950224e-08
2.334864459542964e-08
2.4464321038437485e-08
1.9379259267340834e-08
1.1074465704910903e-08
2.4518783504456377e-09
7.013281921883673e-10
4.314611610266039e-09
9.262134680106522e-09
1.1233761387787591e-08
1.188969376248401e-08
9.265614420346317e-09
9.20201484921295e-09
9.36040588262674e-09
9.276991159364211e-09
9.468229737854633e-09
5.45248023722839e-09
1.5109150133645535e-09
2.6644804387286573e-10
2.11306743791871e-09
1.0131377663145124e-08
4.3536062817369e-08
6.747857425559711e-08
8.385711532193293e-08
1.1380479254867427e-07
1.382932860590444e-07
1.316173574392796e-07
1.0165578746802488e-07
5.043156849773905e-08
2.856947814156926e-08
3.0139473175422024e-08
3.7054246187598694e-08
3.2347184999446174e-08
2.187474101994934e-08
2.383251856565756e-08
2.3037211737792654e-08
1.522124126027153e-08
7.079089855585088e-09
3.7825849984959305e-08
1.221356850440706e-07
2.4283079434659056e-07
2.9833759931555925e-07
2.9262875730719533e-07
2.1355961801305374e-07
1.1076614061914481e-07
4.388251454043388e-08
3.932641150296451e-08
7.233500881577028e-08
1.2170626992527723e-07
1.2412280791941373e-07
8.487531405920452e-08
6.008321000185882e-08
5.944986866493314e-08
1.0087329947529277e-07
1.1524165819663651e-07
1.0228911228991703e-07
9.421161762345723e-08
1.2355170225921373e-07
1.8039311907500355e-07
2.0361565773773517e-07
1.7274170971223605e-07
1.2539873852765126e-07
9.910012348688103e-08
1.2089874124545195e-07
1.6713430240777066e-07
1.5607186402154604e-07
1.2004010365210942e-07
7.506445965881932e-08
6.474530129234484e-08
1.000603166666477e-07
1.6711042886958936e-07
2.1328891386663493e-07
2.2819181516185638e-07
2.04427468890163e-07
1.6467563446573395e-07
1.5209514344046497e-07
1.746135306655467e-07
1.8783122145277468e-07
1.9972136607823225e-07
1.8063274056639255e-07
1.8669926811588437e-07
2.2468350098432856e-07
3.167443308638714e-07
3.554430847843535e-07
3.5161301620815643e-07
2.955459492433839e-07
2.3511463674510966e-07
2.1431599443119539e-07
1.8928252027309808e-07
1.381320851309525e-07
6.84076306009513e-08
8.426043657209668e-09
3.989235247168749e-09
4.1739812464033224e-08
8.728313095441974e-08
8.74734172211107e-08
8.193123956815958e-08
7.751619877476424e-08
1.1219456172624138e-07
1.8770313087994e-07
2.622017117478951e-07
3.033487391304157e-07
2.8847472179261157e-07
2.340590369300362e-07
1.8513029272136575e-07
1.6814205853729126e-07
1.9237068078280294e-07
2.2969614962502038e-07
2.448442770183175e-07
1.9886366198088857e-07
1.3253000727348252e-07
8.044698503815066e-08
5.9134351455808355e-08
6.485836894034835e-08
5.490092152697238e-08
4.403780204474534e-08
2.327113469842556e-08
2.7889666289708363e-08
3.7629355705626133e-08
3.705374202784578e-08
1.832648479250135e-08
3.9399799914727126e-08
1.3490535869556954e-07
2.589609637350734e-07
3.4299075623260644e-07
3.02615948094647e-07
1.5167902306485868e-07
2.1042624911379755e-08
1.8808836980676916e-08
1.5108601308745692e-07
2.91096495405005e-07
3.038334297730481e-07
2.1562844506723224e-07
7.679288463495589e-08
5.698733375514144e-08
1.3786070135605434e-07
2.12982725706673e-07
1.8141069581954296e-07
7.699705355451456e-08
1.806440527675193e-26
1.5796127831724787e-27
9.450509141414376e-29
3.972724108305604e-28
1.5580944124189513e-09
3.5954904381636225e-09
5.953899328896616e-09
1.148781125281953e-08
2.1999352280190393e-08
3.084796887940754e-08
3.244123817915829e-08
2.6059422474109335e-08
1.3206448210254697e-08
3.9456076062605695e-09