# vtk DataFile Version 4.1 
COMMENT
ASCII
DATASET STRUCTURED_POINTS 
DIMENSIONS 400 400 1 
ORIGIN 0 0 0
SPACING 0.002506265664160401 0.002506265664160401 0 
POINT_DATA 160000
SCALARS U double 1
LOOKUP_TABLE default
8.217392741834908e-07
5.23319610999617e-10
1.7962695698214717e-09
2.675267076454064e-09
3.13790867096985e-09
3.082241328892477e-09
2.6994690045918538e-09
2.0408021548377e-09
1.097646365817082e-09
1.2408451563038572e-09
3.0618490651000814e-09
6.0942319243320034e-09
8.202501152380205e-09
8.393912877952926e-09
7.281040804978796e-09
5.20308337298805e-09
3.0103256248000197e-09
1.7124498796410095e-09
1.6881920588812908e-09
3.0829798103139682e-09
6.4491971236533375e-09
1.1683593177741782e-08
1.731928351282697e-08
2.1607940092614984e-08
2.4578696958531153e-08
2.597761014428322e-08
2.4479878233183984e-08
2.2499096946519703e-08
2.2194706756777143e-08
2.3605949617884608e-08
2.5250013875974923e-08
2.5734047436338513e-08
2.1943238231275643e-08
1.4643483080675747e-08
7.327860860045472e-09
2.1679149915044913e-09
4.994423898149266e-10
2.3624844337357945e-09
7.589259602481624e-09
1.5636174008543612e-08
2.6751375374614634e-08
3.856796612620047e-08
4.759026656554013e-08
5.3748869989520845e-08
5.847474619026523e-08
6.228481774526087e-08
6.581581775211189e-08
6.50010653875148e-08
5.7516420994670206e-08
4.4093751418373377e-08
2.8150510920326716e-08
1.4328094795489615e-08
5.143303393011814e-09
7.699362543541101e-10
3.914741442098119e-11
7.190268197007766e-10
1.1424788034304582e-09
1.0110180726584526e-09
6.15188452139767e-10
4.389195276388234e-10
1.0024444874462956e-09
2.9213816617003186e-09
7.668729193477524e-09
1.7665549396169296e-08
3.294721050031029e-08
4.854826877708259e-08
5.883971781221619e-08
6.290601869719425e-08
5.941463066770019e-08
5.2024586812664246e-08
4.684548892980373e-08
4.507362907340091e-08
4.6650929272707134e-08
4.912971588650791e-08
5.0255665227022795e-08
4.9312780828825904e-08
4.837112799457543e-08
4.9282921251822415e-08
5.0337652999586816e-08
4.993901150764183e-08
4.665000308873261e-08
4.07065060117556e-08
3.8164396212507534e-08
3.8663894324146883e-08
4.139873505214805e-08
4.6089796119900914e-08
4.8651409502439905e-08
4.5514490932593417e-08
3.8573136265525924e-08
2.7553746997610975e-08
1.5749414358015784e-08
9.218336204669954e-09
1.1744996753836558e-08
2.313486173219433e-08
3.968496619851925e-08
5.336415461106453e-08
5.993431180564516e-08
5.918334490680453e-08
5.18804300437014e-08
4.3135572540972255e-08
3.594743717846084e-08
3.232574725800768e-08
3.287451039987842e-08
3.791094687724366e-08
4.401173257902329e-08
4.71003623172968e-08
4.519101038617427e-08
3.952349294950426e-08
3.3467972659470005e-08
3.140559264233785e-08
3.5507545082983116e-08
4.202168312246138e-08
4.702053001166841e-08
4.713637941689456e-08
4.266614877931989e-08
3.460410161584418e-08
2.643451435277604e-08
1.80552804744335e-08
9.91426260303635e-09
3.2672142704356824e-09
1.120023827564494e-27
1.0713962745284826e-28
7.338991038941159e-30
5.7353717212094344e-30
2.6701347044633752e-11
8.712444823285834e-11
1.8022693351943837e-10
3.035251053859929e-10
4.5421685105383977e-10
6.313378731512969e-10
8.334991295388574e-10
1.062943284712682e-09
1.3243933228397294e-09
1.6167783867162614e-09
1.9486304949166222e-09
2.3105392203090744e-09
2.7164629867490084e-09
3.1402698834856426e-09
3.5974390457051377e-09
4.0682864601138115e-09
4.550636259285488e-09
5.047064447922579e-09
5.545651131182763e-09
6.053764227188146e-09
6.5875651676869756e-09
7.1136462466435035e-09
7.688012379590068e-09
8.257753804982145e-09
8.851595921858483e-09
9.473110416390023e-09
1.0056774725941563e-08
1.0673569193750553e-08
1.1218094120567297e-08
1.1760588569908622e-08
1.2224519695756027e-08
1.2645998783996086e-08
1.2997395726927584e-08
1.3258143110285241e-08
1.3537410355752775e-08
1.3661164889808472e-08
1.3800260847028703e-08
1.392906366939103e-08
1.3988482870739534e-08
1.4047989453054998e-08
1.4151138989131234e-08
1.4291723633996947e-08
1.428590247784047e-08
1.4439447025054892e-08
1.4684128921309591e-08
1.4765158020397603e-08
1.4827507849091785e-08
1.4937066823531e-08
1.5247451922908335e-08
1.52630809073172e-08
1.4869918297239252e-08
1.4875462007316658e-08
1.5055478714422566e-08
1.4578235274115001e-08
1.3607631586038743e-08
1.3247927048474957e-08
1.3213632487608611e-08
1.2169460737366375e-08
1.0895323085874215e-08
1.0435938460113167e-08
9.971377837939957e-09
9.038309766547703e-09
8.170925196211645e-09
7.722752443776735e-09
7.2930421984920445e-09
6.719829219961846e-09
6.413757542843033e-09
6.304040032838046e-09
6.085702352587378e-09
5.930889047202918e-09
5.632881141026397e-09
5.156062390585426e-09
4.831073166912308e-09
4.686333898259621e-09
4.357035859488175e-09
3.716101107234899e-09
3.1532807393126593e-09
3.1078109154175334e-09
3.2451471839949473e-09
3.001270736266429e-09
2.4975856103119186e-09
2.1129289463073265e-09
1.8796441115740377e-09
1.6751604959926952e-09
1.4278626056900597e-09
1.284740210291827e-09
1.396506578914417e-09
1.7003902511922628e-09
1.9376432301219273e-09
1.9605733132166064e-09
1.9942253359006347e-09
2.0737224171163154e-09
1.7670439031210756e-09
1.1576554272157744e-09
8.26063260377021e-10
7.541576675511887e-10
5.810889459616433e-10
3.5763834930759793e-10
2.5680483963627507e-10
2.1720303224520746e-10
1.9465067695280642e-10
1.646245162335287e-10
1.0814333600408625e-10
1.1357736227988651e-10
1.588803337479252e-10
9.570599594417116e-11
2.4406667356262323e-11
2.147914824915379e-11
7.012123989005218e-11
1.9245620213485975e-10
3.473759928095988e-10
4.153429597081493e-10
3.36992880659275e-10
2.264848607039425e-10
1.6431592196771095e-10
6.244803223195538e-11
2.5611133825827825e-14
4.548711001698025e-11
8.481633397266216e-11
9.622793803640563e-11
1.2343968858092937e-10
1.4039567924027456e-10
8.646426160235463e-11
5.1762680309668065e-11
6.133823848916068e-11
3.0673145353533946e-11
3.282134468549903e-11
9.017130690542593e-11
1.5585319124763867e-10
1.514688407458457e-10
7.504196216120741e-11
2.6212160076340992e-11
2.8636821302937794e-11
4.8125486431657454e-11
8.07560156821972e-11
8.115000324513525e-11
9.525378074265642e-11
1.0345740887197631e-10
8.549407126334002e-11
7.52712498510342e-11
1.0476919366935326e-10
1.6784466771399981e-10
1.5223719491059387e-10
9.7935803923706e-11
9.832002796972538e-11
1.1645661090496994e-10
9.032867344677929e-11
1.0871590348933011e-10
1.8286196767122926e-10
2.714642301901734e-10
1.935160481871982e-10
7.877333928517664e-11
1.4319557229479583e-10
1.8918247572948203e-10
1.564710144423784e-10
9.77951998183122e-11
4.855217560352335e-11
1.0148160011796437e-10
2.1121103037398446e-10
1.36867145471111e-10
4.366888857529033e-11
8.765375802477964e-11
2.0513895519734102e-10
2.3009178119682e-10
1.0862041018347391e-10
2.8946991790016857e-11
1.4059715965284863e-10
2.842101041506019e-10
2.522345868096286e-10
8.907871680860743e-11
3.999156242197533e-12
1.1680229775726123e-10
2.420131357631817e-10
1.591966179158423e-10
7.47598997091908e-11
8.207067592267363e-11
1.6634890122664362e-10
2.0472455124979732e-10
2.0203360058754374e-10
2.2700528305306195e-10
3.5134434905050077e-10
4.564495660260259e-10
4.1705801561096393e-10
2.9029420008305584e-10
2.2155400370782312e-10
3.4642166226807194e-10
5.828935520167109e-10
6.780228626970821e-10
4.073790106946257e-10
1.9355051700929503e-10
3.70958330113081e-10
7.136495190889156e-10
8.001297968339901e-10
6.460916054197468e-10
3.8864944042083024e-10
2.9042303507720665e-10
4.760053221256788e-10
7.128536726005595e-10
6.131253444421402e-10
3.152099929948366e-10
2.3959325523223367e-10
4.440654986272067e-10
6.415077770204878e-10
5.56632928797055e-10
2.8926188857774135e-10
1.4551562223456921e-10
3.63161451613174e-10
6.878338010181569e-10
8.524944559297187e-10
7.344745142005927e-10
3.0337014515274674e-10
1.3078502968042465e-10
4.857461181941485e-10
9.907678102009584e-10
9.800705929569327e-10
5.549177944926739e-10
1.845105817817194e-10
7.052499972614998e-12
1.9928469131629033e-10
4.3218877529828134e-10
5.246602869193356e-10
4.466972521086148e-10
3.343132139981465e-10
3.3913770581975924e-10
2.1622009163330363e-10
5.190959318674108e-11
2.0754742319602966e-11
4.076794752631027e-10
1.0068667125895064e-09
1.2505536546462372e-09
9.978479314029582e-10
3.4006045181651303e-10
2.0211638423267068e-11
5.45883768120507e-10
1.6701796123344046e-09
2.4753757563894343e-09
2.0686555449291103e-09
1.0653061239526912e-09
3.5019244033238414e-10
9.112834500115329e-11
3.2440630029081455e-10
7.066909001850022e-10
1.0827819738553029e-09
1.4287847482432964e-09
1.2310254717653508e-09
6.446591534287462e-10
1.5757257858615836e-10
3.481387060265753e-10
1.4903661705622713e-09
2.7467842749356863e-09
3.169410885326837e-09
2.197325181537857e-09
6.144175977906671e-10
1.3196825301563853e-10
1.199275038835736e-09
2.890680914358307e-09
3.691620858029987e-09
2.999176023006999e-09
1.5034735656983762e-09
2.8531913827925774e-10
2.3347854189146745e-11
3.061828262651591e-10
4.2996020174207054e-10
2.1972362093497444e-10
1.8672129389766584e-11
1.1349482980885276e-10
2.707227834579955e-10
2.0859841008048016e-10
9.546341922040658e-11
5.920346893199753e-10
1.8210352572637897e-09
3.0386856366425856e-09
3.363834791279189e-09
2.2762889998447803e-09
6.81637393131335e-10
4.645344772994404e-31
4.893780515326346e-10
3.3036604927564223e-09
1.1339656851048364e-08
1.6888673694400758e-08
1.9809280386720484e-08
1.945785843559871e-08
1.7041457867125757e-08
1.2883364794204937e-08
6.9293236055894944e-09
7.833322188478467e-09
1.932912426467758e-08
3.8472231536771766e-08
5.17815087172939e-08
5.298987038067019e-08
4.596442852124164e-08
3.284650645334031e-08
1.900386232036582e-08
1.0810512150288277e-08
1.0657375133444652e-08
1.946252038948986e-08
4.0713088712105393e-08
7.375726875783418e-08
1.0933477649515413e-07
1.364086048246182e-07
1.5516267382036115e-07
1.6399386250013816e-07
1.5453884182168936e-07
1.4203438232122398e-07
1.4011279974893273e-07
1.490218243448573e-07
1.594006254118211e-07
1.6245627728675642e-07
1.3852530595850479e-07
9.244273578352673e-08
4.625999849978114e-08
1.3685814478473662e-08
3.1529261601484934e-09
1.4914110467934834e-08
4.791018068308011e-08
9.87094869829523e-08
1.6887855928654683e-07
2.4347542744235077e-07
3.0043224100087644e-07
3.393108429005755e-07
3.691447917339367e-07
3.9319736420828145e-07
4.154881879751839e-07
4.1034474381271896e-07
3.6309498771101305e-07
2.783591164490283e-07
1.77711151700867e-07
9.045172341604188e-08
3.2469121860914983e-08
4.860524872346885e-09
2.4713342228685044e-10
4.539139079730549e-09
7.2123459686428574e-09
6.382448495909543e-09
3.883618618939186e-09
2.77085183219085e-09
6.328324373382242e-09
1.844236863508162e-08
4.841186367494656e-08
1.1152071582313454e-07
2.0799220091999254e-07
3.064800060601691e-07
3.7144881838050844e-07
3.9711893909259533e-07
3.750781814838944e-07
3.284256284160187e-07
2.9573053978549305e-07
2.8454497883332873e-07
2.9450230556853613e-07
3.1015061920682086e-07
3.172586164515617e-07
3.113062885240655e-07
3.053617353274765e-07
3.111177882217581e-07
3.1777619645318147e-07
3.152596155339292e-07
2.9449645866858953e-07
2.569758000322431e-07
2.4092773392598183e-07
2.440810118520225e-07
2.61345767609638e-07
2.9095993224803176e-07
3.071311223806645e-07
2.8732809239598587e-07
2.435080659765706e-07
1.7394384515714217e-07
9.9424361145651e-08
5.8194366288208124e-08
7.414490293816004e-08
1.460478971235969e-07
2.505269289182401e-07
3.368821760399275e-07
3.7835887268707733e-07
3.7361809931852586e-07
3.2751558221790984e-07
2.723102361171463e-07
2.2693230967492146e-07
2.0406897022475116e-07
2.0753325299492357e-07
2.393277354962894e-07
2.7784134032612515e-07
2.9733952810394626e-07
2.852859944525534e-07
2.4950756564158227e-07
2.1127971649398803e-07
1.9826013297286753e-07
2.241553181264303e-07
2.6527837186462076e-07
2.9683555533356525e-07
2.975669001849915e-07
2.693468143321882e-07
2.1845197656022253e-07
1.668782496907664e-07
1.1398104625791682e-07
6.258767488934717e-08
2.0625572747007695e-08
7.070590117963994e-27
6.763609598893386e-28
4.633026212362038e-29
3.6206785620816106e-29
1.6856273581308532e-10
5.500072833699078e-10
1.1377532725392983e-09
1.916121387669855e-09
2.8674221917739244e-09
3.985568179122435e-09
5.2617904758902805e-09
6.710246782149733e-09
8.36075278963551e-09
1.020654829184471e-08
1.2301495005584936e-08
1.458618591517852e-08
1.7148739051104237e-08
1.9824186467707065e-08
2.2710246282752302e-08
2.5682655434641674e-08
2.8727677906030824e-08
3.186157573790892e-08
3.50090999144916e-08
3.8216763311471304e-08
4.1586591311522114e-08
4.4907684654872134e-08
4.8533596357604466e-08
5.213031277830042e-08
5.587917427560179e-08
5.980272852065923e-08
6.348733861355095e-08
6.738109583690251e-08
7.081862321067958e-08
7.424333239825464e-08
7.717207976335808e-08
7.983283197495957e-08
8.205116313098236e-08
8.369723335438344e-08
8.546021747800476e-08
8.624146655861601e-08
8.71195643957921e-08
8.793268277822982e-08
8.83077898139307e-08
8.868344847629012e-08
8.933462041790776e-08
9.022211618028492e-08
9.018536784673867e-08
9.115467808057744e-08
9.269932860954446e-08
9.321085660848452e-08
9.360446437983027e-08
9.429609841737453e-08
9.625552621025719e-08
9.635419031006961e-08
9.387219698353927e-08
9.390719382978975e-08
9.504361996556152e-08
9.20308333891907e-08
8.59035165621063e-08
8.363274045351599e-08
8.341624257445851e-08
7.682449847310838e-08
6.878100433856275e-08
6.588095854014998e-08
6.294823723235801e-08
5.705787872157543e-08
5.158217309767931e-08
4.875290665127012e-08
4.604019202938155e-08
4.24215600666156e-08
4.048936244513213e-08
3.979672758958999e-08
3.8418385266537354e-08
3.744106549865262e-08
3.5559773596971595e-08
3.254966804211122e-08
3.0498045981226416e-08
2.95843225251439e-08
2.7505499377367383e-08
2.3459347131306574e-08
1.9906322603004118e-08
1.9619276488817834e-08
2.0486265600605798e-08
1.8946699781668686e-08
1.5766989683997268e-08
1.33386934813763e-08
1.1865991377598e-08
1.0575108276692062e-08
9.013943258292957e-09
8.110426949392109e-09
8.81599602931251e-09
1.0734381011255777e-08
1.2232133583114348e-08
1.2376888734695263e-08
1.258933033922487e-08
1.3091186873895963e-08
1.1155158356393945e-08
7.308154364428375e-09
5.214848632582822e-09
4.760916348690053e-09
3.6683520991770334e-09
2.2577324840650717e-09
1.6211813683696093e-09
1.3711794120704497e-09
1.2288088155323315e-09
1.0392568881204132e-09
6.826972641616604e-10
7.170016883541162e-10
1.002994481090371e-09
6.041816722991033e-10
1.5407666941950458e-10
1.3559555575080408e-10
4.4266785547241943e-10
1.2149553317224067e-09
2.192947329806738e-09
2.6220154912813685e-09
2.12739985808604e-09
1.4297745981386589e-09
1.0373087656674328e-09
3.94227719731378e-10
1.6168033686615836e-13
2.871552396167943e-10
5.35436405967449e-10
6.07476636663859e-10
7.792614949476277e-10
8.863028426812343e-10
5.458395960843597e-10
3.267722407948445e-10
3.872217110397184e-10
1.9363627191322569e-10
2.071976235507511e-10
5.69241774896695e-10
9.838844556414149e-10
9.562065218611323e-10
4.737318466192255e-10
1.6547455102743765e-10
1.8078117691008973e-10
3.0381102652594534e-10
5.098040527319132e-10
5.122912538972386e-10
6.01326886305866e-10
6.531155095075278e-10
5.397148886855022e-10
4.751793151765557e-10
6.613966660302397e-10
1.059585358529544e-09
9.61057059171735e-10
6.182582105628826e-10
6.206837756946321e-10
7.351780756546836e-10
5.702352129690001e-10
6.863118211946445e-10
1.1543879601018518e-09
1.7137245263229157e-09
1.2216460260092617e-09
4.972876296033287e-10
9.039782667886864e-10
1.1942886485670002e-09
9.877847071073808e-10
6.173705919482819e-10
3.0650466943584457e-10
6.406424410715803e-10
1.3333525478780881e-09
8.640275880079461e-10
2.756770029565633e-10
5.533487592313975e-10
1.2950201895095447e-09
1.4525446997789766e-09
6.857089822120249e-10
1.8273924987858563e-10
8.87574766884139e-10
1.7941878595587717e-09
1.5923298531809083e-09
5.623443709741833e-10
2.5246243794440748e-11
7.373603596218346e-10
1.5278029306444348e-09
1.0049911490693062e-09
4.719512166569023e-10
5.181033616180517e-10
1.0501427453600725e-09
1.292404101901195e-09
1.2754164194142686e-09
1.43305996852837e-09
2.2179991365013286e-09
2.8815170815700616e-09
2.6328424549760313e-09
1.8325961036675582e-09
1.3986466275617576e-09
2.186922743605867e-09
3.679744383363991e-09
4.280285503536389e-09
2.571739936593005e-09
1.2218636239807496e-09
2.3418200921470485e-09
4.505192758561452e-09
5.051133462834456e-09
4.078706906186152e-09
2.453502171259405e-09
1.8334094251470402e-09
3.0049704692789566e-09
4.500168665164955e-09
3.870594441649264e-09
1.989886828032196e-09
1.5125264847799022e-09
2.8033377942948105e-09
4.049769689865748e-09
3.5139638897183912e-09
1.8260792320184878e-09
9.186244928542651e-10
2.292599235665553e-09
4.342220903332117e-09
5.381705931045175e-09
4.636658715820111e-09
1.9151431403621624e-09
8.256318443214448e-10
3.066463068568196e-09
6.254610764162812e-09
6.1870803807246406e-09
3.5031364310830606e-09
1.164795483898301e-09
4.4521674794853013e-11
1.25806285045425e-09
2.7283613156373005e-09
3.312124035831187e-09
2.8199517713376257e-09
2.1104834102861636e-09
2.1409399089414384e-09
1.3649742135683912e-09
3.276996860074101e-10
1.3102245892837808e-10
2.573636737139911e-09
6.3562414057055486e-09
7.894610895692112e-09
6.299306808811884e-09
2.1467651053037556e-09
1.2759390236738908e-10
3.4461055929701188e-09
1.0543664493170404e-08
1.562678126181824e-08
1.3059200254027575e-08
6.7251631324715595e-09
2.2107272604941714e-09
5.752834535964059e-10
2.0479421281860294e-09
4.461263744869238e-09
6.8354862957681126e-09
9.019764645181178e-09
7.771331574751558e-09
4.069663990631356e-09
9.947387632244287e-10
2.1977622564199708e-09
9.408521549617335e-09
1.734015408651725e-08
2.0008150482199476e-08
1.3871477849108857e-08
3.8787522982333225e-09
8.33101406142732e-10
7.570894502085546e-09
1.8248558114779957e-08
2.3304805947580208e-08
1.893347608186195e-08
9.49126712720305e-09
1.8011890728879649e-09
1.4739249562611572e-10
1.932899294105472e-09
2.7142925701553716e-09
1.3870916177242104e-09
1.1787514720263959e-10
7.164806697295649e-10
1.7090438527439145e-09
1.316859356595352e-09
6.026503114979427e-10
3.737451401279813e-09
1.1495999975707609e-08
1.9182896028885594e-08
2.1235527716764164e-08
1.4369967952316496e-08
4.3031036459192026e-09
5.7611498260692e-10
1.5674036315240238e-09
9.133211100160408e-09
3.1327885968354046e-08
4.545485266153945e-08
4.914767799578386e-08
4.6752082591138094e-08
4.0415564545175e-08
2.93442678557877e-08
1.276819922396027e-08
1.7401909664910272e-08
5.1255727671329516e-08
1.099606571736164e-07
1.483409873087591e-07
1.5064103149928395e-07
1.3192640133599252e-07
9.323512965822601e-08
5.0872402974501456e-08
2.7315989360973435e-08
2.509067314650701e-08
5.108950138960715e-08
1.047497019043983e-07
1.8872635173439318e-07
2.849464382920801e-07
3.6273049894999057e-07
4.216346666904565e-07
4.497952434524379e-07
4.3507906554617785e-07
4.049699284750078e-07
4.120188748329145e-07
4.3856024913256355e-07
4.875337878896012e-07
5.045443511040947e-07
4.4281164835635563e-07
3.0902875791671146e-07
1.576436601190866e-07
4.9563900149183235e-08
2.2389277236313874e-09
1.947955541332637e-08
9.923365604455884e-08
2.4284224858798144e-07
4.544828702246355e-07
6.883670967673216e-07
8.760714185553771e-07
1.0076262875143951e-06
1.1143773305791541e-06
1.1926106172208114e-06
1.2789824410499094e-06
1.2889036751873012e-06
1.1765189345809062e-06
9.18138658411233e-07
6.025507534310401e-07
3.2173936795099756e-07
1.2085421368780109e-07
2.7671759806393683e-08
1.5070653160662376e-08
3.2547417156360916e-08
4.047090676982728e-08
3.228580656034798e-08
1.771652500728188e-08
1.2801454816870551e-08
1.788862299450687e-08
4.563030991024348e-08
1.113079101522494e-07
2.690253965949107e-07
5.320880754395843e-07
8.046047992723258e-07
1.0119311197872372e-06
1.118777081977452e-06
1.0877321241007415e-06
9.79546630328161e-07
9.085947276154726e-07
9.010185037153138e-07
9.429079638449979e-07
1.000917233271873e-06
1.0181951107091941e-06
9.930041820839128e-07
9.69069279660391e-07
9.904363658720623e-07
1.0075369239577767e-06
9.834804312788895e-07
8.903666350265171e-07
7.351643285731623e-07
6.236128624938727e-07
5.864674555528951e-07
6.135713992270934e-07
6.993703712596648e-07
7.829623260709137e-07
7.768972219784885e-07
6.909785797257665e-07
5.241591637405789e-07
3.189862206042606e-07
1.9337428045825041e-07
2.2512020252582465e-07
4.1801985729470504e-07
7.119687175232629e-07
9.537503943981556e-07
1.0890850256255413e-06
1.0777038287251224e-06
9.390296944817525e-07
7.706864860227256e-07
6.296198418278972e-07
5.30954716232412e-07
5.164704470608892e-07
5.931816827254743e-07
7.116658162855525e-07
7.982476493386385e-07
8.008792765931382e-07
7.034733822577983e-07
5.780276337334428e-07
5.070313859284312e-07
5.331958333895454e-07
6.214007252843549e-07
7.025473495943075e-07
7.259060377962949e-07
6.778887942651511e-07
5.861954264079063e-07
4.7237438920186614e-07
3.417925187617817e-07
1.9481412208704887e-07
6.616763612311157e-08
1.5077253590115148e-26
1.4383106200637179e-27
9.709982689755536e-29
7.200792552679051e-29
4.448337223922662e-10
1.4373677895012006e-09
2.951846135050921e-09
4.958005280929883e-09
7.3888913411235895e-09
1.0266370857718415e-08
1.3540923284833073e-08
1.733314725798256e-08
2.1637960529812946e-08
2.6549522066779564e-08
3.208540915744556e-08
3.821885488216738e-08
4.502200596403987e-08
5.220670678187888e-08
5.98665701200376e-08
6.781117711639316e-08
7.589308820636518e-08
8.436979721890216e-08
9.2746530866597e-08
1.016214504836873e-07
1.108044323806272e-07
1.2018284252790126e-07
1.304684130871801e-07
1.4065196525776037e-07
1.518459556686697e-07
1.628611218781989e-07
1.7407368547547562e-07
1.8515153816861092e-07
1.955851858669669e-07
2.0559335654172612e-07
2.1429289123135286e-07
2.2258043989372204e-07
2.2888402594109673e-07
2.347254019317396e-07
2.3983516522333743e-07
2.4304209007151086e-07
2.464006658881631e-07
2.495401691200314e-07
2.518809660799772e-07
2.5376203474992436e-07
2.5723167164191016e-07
2.6057886534743654e-07
2.6234832275213743e-07
2.6617602173603837e-07
2.7156155764756337e-07
2.75362438020896e-07
2.769918753183444e-07
2.8065848003316845e-07
2.875776447844667e-07
2.88628797936335e-07
2.8312214479628716e-07
2.841182061270111e-07
2.891126218183076e-07
2.793976565301732e-07
2.6215784289414505e-07
2.598249620094413e-07
2.576767176008182e-07
2.3517037361519652e-07
2.1338697314981023e-07
2.0848572118073692e-07
1.986521187716721e-07
1.754344717328816e-07
1.6033450048966686e-07
1.566697663842959e-07
1.4596766409722787e-07
1.3064538054657982e-07
1.252376651138331e-07
1.2634580969169484e-07
1.220548955428241e-07
1.1387200981164387e-07
1.0936483108096072e-07
1.07740709880666e-07
1.020899542827186e-07
9.429779121725357e-08
8.854385048285689e-08
8.160064471583502e-08
7.258827596458587e-08
6.657180021467955e-08
6.574238946244734e-08
6.404193771494772e-08
5.508029883039011e-08
4.474988124863744e-08
4.076129961164235e-08
3.912834217073365e-08
3.4058564686310134e-08
2.9646263023003917e-08
3.074484292313784e-08
3.562230459948846e-08
3.950596464734825e-08
4.010760163568676e-08
3.963054942862857e-08
3.957748079581751e-08
3.5728251068547714e-08
2.6727207055591105e-08
1.9517536555306185e-08
1.65460941740855e-08
1.3513932316810903e-08
8.973489825130324e-09
5.891474347138399e-09
4.962387192424579e-09
4.791834577755437e-09
3.975889198116203e-09
3.215425562227976e-09
3.2005512738483703e-09
3.238687334196908e-09
2.124817339964843e-09
1.0722042239305793e-09
1.15741643797294e-09
2.0642753794108943e-09
4.6923899159433704e-09
8.56499281487057e-09
9.868548082185483e-09
7.715556022997411e-09
4.875841312545359e-09
2.7608015336935507e-09
9.73840935755822e-10
3.628471922446883e-11
1.2149182650158004e-09
2.6402732056543562e-09
2.8105713010399705e-09
2.9711945242969202e-09
3.055206558801323e-09
1.693554741150368e-09
1.0604068292773339e-09
1.576202215324986e-09
1.2995920462099053e-09
1.005421871167276e-09
1.6955973259519492e-09
3.228406186067453e-09
3.4767148802349754e-09
1.6807349023261011e-09
7.345786301096293e-10
7.81728326501847e-10
1.0766470458743336e-09
1.5167233635711385e-09
1.6455983516550202e-09
2.1375946089004134e-09
2.189631719242687e-09
1.6296858794193066e-09
1.4374247774225596e-09
1.8175464178547792e-09
2.7279101252060945e-09
3.008220223681874e-09
2.389963000233787e-09
2.3238086994184966e-09
2.264332860710118e-09
1.6585635112240956e-09
2.174743088384124e-09
3.619415875000067e-09
5.1476877296889835e-09
3.777040596455976e-09
1.3011516743918323e-09
2.1001684783609814e-09
3.3726635923752544e-09
3.1975590359579965e-09
1.5764231024781404e-09
6.372162918808071e-10
1.8382375589207474e-09
3.4793976375126005e-09
2.0296358818881774e-09
5.674640801363308e-10
1.4515382505083587e-09
3.774519811485139e-09
4.563918926914178e-09
2.157702903555208e-09
9.063666864777002e-11
2.237289582296656e-09
5.7198281988502495e-09
5.10026384256896e-09
1.7197914712257709e-09
5.944514243519582e-11
2.0738065084097927e-09
4.3930203769734415e-09
2.9585000795786222e-09
1.3985904962534126e-09
1.3697063007408584e-09
3.1586515433194385e-09
3.768459870743928e-09
3.4114166802878633e-09
3.793048530492646e-09
6.075819804411444e-09
8.165964484999439e-09
8.900027704013387e-09
7.252893966167621e-09
5.1879818495464195e-09
8.024156713594002e-09
1.4193845823649181e-08
1.599635034329271e-08
1.0013068648419921e-08
5.546220831635364e-09
9.051079517792542e-09
1.6452880790153136e-08
1.8559526964390576e-08
1.3826853408624653e-08
8.344328827135631e-09
7.920493581562569e-09
1.1941880630374815e-08
1.5796405448566366e-08
1.389589856708804e-08
7.823935634657482e-09
6.07162587961408e-09
1.0884535821549531e-08
1.5262314924203332e-08
1.2584912460164767e-08
7.248622470924303e-09
4.387695561821506e-09
7.84461963462497e-09
1.4257466323986722e-08
1.9800072866323757e-08
1.8655854505555322e-08
8.70080741572933e-09
3.256513016561634e-09
8.821505289518305e-09
1.975411177389624e-08
2.203412120445777e-08
1.5061058091759652e-08
6.088466683635023e-09
1.4033489485615162e-10
2.819657484841782e-09
8.276310801701117e-09
1.2088225605240678e-08
1.2887926832696138e-08
1.296499926553106e-08
1.3273250590112245e-08
8.69993122601402e-09
2.2082990321366265e-09
5.619851792854555e-10
1.2003367878414204e-08
3.024541765999736e-08
3.768585134249608e-08
2.906971883914052e-08
9.968120719447169e-09
4.997667211685045e-10
1.4204717464008589e-08
4.45641042490181e-08
6.837860981001429e-08
5.934642850077052e-08
3.2028585998050715e-08
1.1293143877280067e-08
2.0422216623115595e-09
8.046320206518952e-09
1.9966735700365415e-08
3.2491591506730283e-08
4.093078001012671e-08
3.352997412512471e-08
1.7684910303064028e-08
4.336298519391267e-09
8.45517423678455e-09
3.549627204277626e-08
6.657834492292646e-08
7.828097924651715e-08
5.4762048050633346e-08
1.6121336544670644e-08
2.155054000435547e-09
2.6481871801255423e-08
6.956075267468874e-08
9.29152390477267e-08
7.93892028706767e-08
4.332878519849553e-08
1.0398055681924344e-08
2.3274078061999758e-11
5.782000237859058e-09
9.395274191711479e-09
5.511766021855144e-09
1.1986390042192738e-09
2.6431334323406167e-09
5.878685308239288e-09
4.380683093508374e-09
3.0621243060839716e-09
1.6339566675044906e-08
4.751997959915995e-08
7.854982252371626e-08
8.409021944402078e-08
5.5598069770613845e-08
1.6663613804796207e-08
2.8224239919072924e-09
1.902134519776688e-09
9.987459385125777e-09
3.224393272253182e-08
4.426093826049164e-08
4.8696104380817643e-08
4.8231182197357554e-08
4.292126228237953e-08
3.3503232088175746e-08
1.4881449828777353e-08
2.1111819071900325e-08
6.517541651242248e-08
1.395381615781066e-07
1.8104314048264522e-07
1.7746325906122285e-07
1.5148668141486585e-07
9.876716368586915e-08
4.567499934451084e-08
2.1865063503987232e-08
2.2797895523677507e-08
4.6490211911048606e-08
9.656118105721669e-08
1.8041832275983037e-07
2.8793657079967377e-07
3.799100414103105e-07
4.65297141968876e-07
5.205304546215288e-07
5.172205208711036e-07
5.027648815817586e-07
5.185562649269312e-07
5.700504565808202e-07
6.610053943323802e-07
7.077277244207069e-07
6.315596812289553e-07
4.487938936564086e-07
2.410282415500133e-07
9.207817636222653e-08
2.7918278172617193e-08
3.647410160434455e-08
1.1144792839925583e-07
2.6956413816675206e-07
5.368525092047499e-07
8.513516974129889e-07
1.1143808957813626e-06
1.3248632591392995e-06
1.4738712853164982e-06
1.5737827256882683e-06
1.709996406927849e-06
1.744127080770428e-06
1.6153219246837273e-06
1.2761326057023398e-06
8.632391799098149e-07
4.930375333294268e-07
2.152524268342425e-07
8.990119452990379e-08
7.531150401314196e-08
9.80617573578182e-08
9.04856681557403e-08
5.861242986673802e-08
2.8424425308673037e-08
1.6249083709671317e-08
1.5899957514109896e-08
2.7969525684866315e-08
7.908155986990255e-08
2.469620852593099e-07
5.542677647427028e-07
9.092740325485178e-07
1.1910067733438204e-06
1.3891589452541967e-06
1.4017452657411964e-06
1.3293386821281595e-06
1.3012515317417584e-06
1.3343318949866171e-06
1.4086303593741775e-06
1.4530993160676904e-06
1.4531713762068214e-06
1.385193558587099e-06
1.3274785326301754e-06
1.3499458735533192e-06
1.3547163353092953e-06
1.2860001315216325e-06
1.0790691751060342e-06
7.874188120812854e-07
5.500093116233796e-07
4.3951308467230303e-07
4.5828922974061715e-07
5.964383162248347e-07
7.786702655142404e-07
8.798916076692457e-07
8.832882415498139e-07
7.385290905980239e-07
4.899579138232331e-07
3.1105824492520563e-07
3.170887435302786e-07
5.312183391963089e-07
8.782445328387772e-07
1.1591064602741257e-06
1.2884788776313806e-06
1.24375847465924e-06
1.0557832612446232e-06
8.4028729184454e-07
6.449679637636376e-07
4.943980286567088e-07
4.393617050366245e-07
5.260603167385e-07
7.141167039130517e-07
8.894124579974966e-07
9.346451018617449e-07
8.16724326607021e-07
6.21583307627751e-07
4.4932177467573126e-07
4.2039753982019455e-07
4.81132946405212e-07
5.780984549030023e-07
6.201967348929406e-07
6.239504512225539e-07
5.83928940354567e-07
5.34836958484659e-07
4.2653987376070464e-07
2.6669781877427975e-07
9.408971836668031e-08
2.1196127413757903e-26
2.006118898909881e-27
1.4100830410336002e-28
6.83677765649363e-29
4.4295423594781524e-10
1.4074241761776686e-09
2.8541188348330567e-09
4.746973719313578e-09
7.025639488866708e-09
9.724254930934972e-09
1.2818724696917308e-08