# vtk DataFile Version 4.1 
COMMENT
ASCII
DATASET STRUCTURED_POINTS 
DIMENSIONS 400 400 1 
ORIGIN 0 0 0
SPACING 0.002506265664160401 0.002506265664160401 0 
POINT_DATA 160000
SCALARS U double 1
LOOKUP_TABLE default
1.220292296684865e-06
4.520792550968193e-09
1.3090350752659174e-08
1.4286221418359635e-08
6.7663937844216014e-09
4.0440143375622275e-10
4.479055571063459e-09
1.3843070258472916e-08
1.6399864417434563e-08
8.417925728942354e-09
2.4452849991926006e-09
1.1375078431372914e-08
3.2532531126597e-08
4.699149132081713e-08
4.379107384824946e-08
2.6829372824289286e-08
1.4309187554387082e-08
1.438556262364511e-08
1.9655786474828077e-08
1.799421007618619e-08
9.576081435635236e-09
3.8185301884519566e-09
6.85807169364706e-09
1.3079923358657355e-08
1.3535052480676303e-08
6.162207825934644e-09
1.0925979601135948e-09
5.523465111501484e-09
1.5596506171354903e-08
1.960986944362211e-08
1.4654318205836114e-08
7.141315872152939e-09
5.245403484725405e-09
8.538329267303967e-09
9.344823685627904e-09
4.372995083043857e-09
1.0810096618720989e-10
4.844775687768742e-09
1.781445029545307e-08
2.8498845071437623e-08
2.8347948708273257e-08
1.9777238769777734e-08
1.2714216996839543e-08
1.1076140259183953e-08
1.142791388581077e-08
8.466282619686848e-09
3.3594450447026742e-09
1.0903313629948888e-09
4.369603347301735e-09
9.64585433082578e-09
1.0906391554824495e-08
7.268167998924781e-09
2.2042916062798362e-09
1.0087616936145229e-09
3.7601348215498435e-09
7.304713828891124e-09
9.062644625199e-09
8.724398316394373e-09
7.230217661631747e-09
6.627555050309497e-09
8.157643717140704e-09
1.1548006486222113e-08
1.622611425188851e-08
1.7657041043426675e-08
1.4340559144044353e-08
7.144503925012927e-09
1.1206669077561987e-09
6.947371964708352e-10
4.766978173976947e-09
8.87705805959558e-09
9.089131417920443e-09
6.196746625028177e-09
3.4014405584153298e-09
3.3915335194190542e-09
5.139803122654997e-09
6.43351684074482e-09
7.03697624985592e-09
8.031287272624287e-09
1.0094527855189635e-08
1.2493893152279183e-08
1.3244006067843322e-08
1.172809175254854e-08
8.679569074209897e-09
6.007764585771251e-09
4.292817308372196e-09
3.73705018949995e-09
3.089288407186534e-09
3.0420720223495763e-09
2.8159640457392492e-09
3.040547465834674e-09
3.274812347456094e-09
2.8997767522623637e-09
1.9729906841861782e-09
8.316458199331641e-10
1.0776058326400667e-10
5.661623531304395e-11
3.8142639290238646e-10
5.814390835560332e-10
4.151613863411287e-10
9.20731977404485e-11
1.6804866264685366e-11
3.681436254227603e-10
8.630438094915353e-10
1.2006405752203647e-09
1.0777383043168959e-09
5.515038123423784e-10
2.4968878671696154e-10
5.023202562215072e-10
1.458854613875316e-09
2.1046165305349395e-09
2.0608649141211226e-09
1.3252878707928686e-09
3.45694180469374e-10
5.3612972769893585e-11
5.054873180901417e-10
1.173053601519009e-09
1.5420551837850788e-09
1.3181040698267145e-09
8.960465002133828e-10
2.7439997596571883e-10
8.418062820356323e-29
9.034132079499638e-30
7.928334489415667e-31
5.628499293804234e-30
2.016054728792505e-11
7.940274417759367e-11
1.413910948276966e-10
1.2234025614075603e-10
4.136618268909369e-11
7.913458523436146e-13
5.3927488908960256e-11
1.1305910637486526e-10
8.764049776234186e-11
3.6728019560423976e-11
9.632838387908046e-12
9.489569804241816e-12
4.8116995283255846e-11
1.1501101955573907e-10
1.3640215612859403e-10
8.740485400537196e-11
1.4212207684525226e-11
1.2437056884161275e-11
8.024409911989331e-11
1.2901324266922877e-10
1.4097577715876615e-10
1.1471461422668337e-10
6.462162601608283e-11
3.5036806439615335e-11
3.563395002698557e-11
4.2774215796647575e-11
2.4808271223723795e-11
7.603774443877452e-12
4.9620786704986113e-14
3.714754263690367e-12
2.6357865482303442e-11
6.422233681500933e-11
6.403274399117479e-11
3.801204519695709e-11
1.7591161596140707e-11
2.378074789532861e-11
4.6625151588201494e-11
5.787616882287097e-11
6.015274563066794e-11
6.365884294257478e-11
1.0127825410985534e-10
1.830411928042528e-10
1.880645234416109e-10
1.7883925072340821e-10
2.909654382990866e-10
3.691953063915169e-10
3.178117099595771e-10
1.9821971982849285e-10
5.6689391285869326e-11
4.646803264321937e-11
1.6970469828265729e-10
2.2163538075877866e-10
1.5182897352094385e-10
3.5866677022761176e-11
1.0023402037662495e-11
1.2653502469595754e-10
2.157509186501796e-10
2.135822549292909e-10
1.5942572308459755e-10
7.241660794801419e-11
2.2422961076555826e-11
2.902111924171944e-11
1.0404468240308583e-10
2.6781663364898195e-10
3.7268841884947363e-10
3.3231943711058784e-10
2.6035243914358243e-10
2.5411305735260695e-10
4.2455761832235956e-10
6.583779896738283e-10
6.246289650218163e-10
2.78699709488094e-10
4.8912270936711127e-11
2.1192657697028095e-10
5.136768451220866e-10
5.309909898023481e-10
2.1380675683145075e-10
2.975366200079362e-10
1.145948078808425e-09
2.112240390077052e-09
2.1450700970255437e-09
1.1334866673923355e-09
4.1086254751507324e-10
7.792964051258891e-10
1.4916653051386267e-09
1.4598510412933833e-09
6.744247495825483e-10
5.1936407918678244e-11
2.4635408076322834e-10
7.087224381383674e-10
6.197855938880354e-10
1.2522609593115305e-10
8.759803195018668e-11
9.152172453147529e-10
1.9717632696798936e-09
2.273021765156142e-09
1.3870887324427218e-09
2.8617206855760926e-10
8.589942056613907e-11
9.572203597478318e-10
2.155310156358302e-09
2.612872113749437e-09
2.102760554108392e-09
1.2494253551799597e-09
7.430695681763738e-10
5.415383861255757e-10
2.46457243352206e-10
1.1216010844552815e-10
7.456319624177189e-10
2.06849102551866e-09
2.658283914336063e-09
1.6269053230377645e-09
2.2046689916158812e-10
3.64245265689207e-10
2.458814122322953e-09
4.3921396263880215e-09
4.513018874178774e-09
3.10668321460851e-09
2.0075966553358565e-09
1.5194385127013002e-09
1.372224469076806e-09
1.0537668155557663e-09
1.6066044986836759e-09
3.1002880756841165e-09
4.327454717646658e-09
3.692531355306495e-09
1.841776096760289e-09
3.8718288678988017e-10
7.463357131611594e-10
2.2312286479419882e-09
3.5844876099754673e-09
4.37581045405522e-09
4.439776768588741e-09
3.546406577425999e-09
1.901379143484988e-09
6.966275972256699e-10
1.6038716403740972e-09
4.346774047493228e-09
6.658155167461661e-09
6.088108508063156e-09
3.399170020054664e-09
9.436094540483706e-10
7.516260418726375e-10
2.5840181923775565e-09
4.823366632172064e-09
5.926885177264747e-09
5.87597724668598e-09
4.536541185902522e-09
2.6919158970639293e-09
1.2515553934915545e-09
1.58848627782321e-09
3.64058001544293e-09
5.929654162336688e-09
6.249010569925943e-09
4.180732878854419e-09
1.295045589457833e-09
1.3384502781915992e-10
1.0195656298935586e-09
2.4030648921744004e-09
3.029249335507767e-09
2.9662531405855373e-09
2.528818344887943e-09
1.7921178843266264e-09
8.264843911313691e-10
5.441751804769175e-10
2.3912286294593797e-09
5.925697581814912e-09
7.851432432160297e-09
6.327879080707643e-09
2.5347821264908434e-09
1.4746459337467715e-10
5.860514008110178e-10
2.257968397658945e-09
2.697824368345402e-09
1.8787326921445493e-09
6.669572808023478e-10
1.5534603554117305e-10
3.583226080678282e-11
1.8518686119243654e-10
9.259851798181584e-10
2.1276978058364228e-09
2.5741677096737525e-09
1.9625442234315504e-09
5.956033743235449e-10
4.7190962452324215e-11
6.34109340451759e-10
1.6857538046933997e-09
2.1104869589589203e-09
1.7046920098592617e-09
9.279344202445107e-10
3.6392494986076947e-10
1.7015167295661384e-10
2.699694123123119e-10
6.672569667456752e-10
1.0858312119651948e-09
1.252048072091657e-09
9.297187752200994e-10
5.196994358679045e-10
2.6194741946488357e-10
6.642425886730627e-10
1.3571959674021142e-09
1.8336227817620679e-09
1.5962351224526377e-09
9.601689918821383e-10
5.832214271398411e-10
1.027802116599017e-09
1.4522652942764426e-09
1.477932562188247e-09
1.0962707986544826e-09
1.0475587185073542e-09
1.498869416417578e-09
1.8424537749472697e-09
1.6705428588540695e-09
9.526032054691914e-10
7.957790781386738e-10
1.2393040388455163e-09
1.7807955098354611e-09
1.906642528439688e-09
1.4941197006312014e-09
1.1366624173621151e-09
8.724819084419785e-10
5.956820617028153e-10
4.721414331275281e-10
6.373237676119971e-10
1.1514980106451401e-09
1.5724528711016967e-09
1.441776657773491e-09
8.67218371342569e-10
2.0068281074571928e-10
2.589140805417124e-11
5.09869734693457e-10
1.3052472278926402e-09
1.866848368915766e-09
1.8704830925065552e-09
1.3365906524426826e-09
6.788321793727938e-10
3.5599413848306234e-10
4.049225453595637e-10
7.487894580843095e-10
1.1262561363946195e-09
1.4872605556182333e-09
1.8771796883541054e-09
2.0192715830500103e-09
1.7571465025436685e-09
1.0762948650032736e-09
3.3887337033501524e-10
3.105830272574186e-10
1.3113588634539508e-09
2.9562679760260066e-09
4.093723133996541e-09
3.992181628149207e-09
2.477359916935968e-09
5.89976434990764e-10
6.638718358523565e-11
1.1484198101729714e-09
3.359001510105911e-09
4.760813687551429e-09
4.444724241972058e-09
2.580056807479459e-09
4.924044838354723e-10
1.2283272348184013e-10
1.464931125681461e-09
3.3810704043863195e-09
4.486996681192089e-09
4.154295655232437e-09
2.653077305176169e-09
9.483988843503858e-10
2.8158922673299493e-11
6.843085562447927e-10
2.5409705935542447e-09
4.541582568562308e-09
5.368314994022981e-09
4.576374816866329e-09
2.672618767883367e-09
7.125946753760557e-10
6.89839054797882e-31
4.593718021260404e-09
2.8539277781034807e-08
8.26379782238202e-08
9.018738128397774e-08
4.27155171603967e-08
2.5529428132122202e-09
2.8275796710002798e-08
8.738981561193944e-08
1.0353058250377715e-07
5.314146092966698e-08
1.543682154378203e-08
7.180964830259323e-08
2.0537437457581882e-07
2.966522371973626e-07
2.7644834546043133e-07
1.6937094880837977e-07
9.033236403385063e-08
9.081451164237865e-08
1.2408486872278342e-07
1.1359551539355437e-07
6.045277350469765e-08
2.410597091878467e-08
4.3294269953910645e-08
8.257215120552751e-08
8.544533246591415e-08
3.890135610207359e-08
6.8974535626492785e-09
3.486904195531718e-08
9.845906818763311e-08
1.237949994368798e-07
9.251113676482764e-08
4.508236002862754e-08
3.3113668772995546e-08
5.390155553440297e-08
5.8992868169058474e-08
2.760624824144162e-08
6.82429788058802e-10
3.058454852356019e-08
1.1246071120637668e-07
1.7991014778111097e-07
1.7895755524872996e-07
1.248515840152094e-07
8.026348622509727e-08
6.992248373149863e-08
7.214319285122914e-08
5.344673278676398e-08
2.1207815718143766e-08
6.883144778501551e-09
2.7584836578019117e-08
6.089324229749894e-08
6.885087839414518e-08
4.5883163879333156e-08
1.3915456140218334e-08
6.3682042173703264e-09
2.3737327239970427e-08
4.611387377840264e-08
5.721150207035367e-08
5.507618945502089e-08
4.564358747637305e-08
4.183904314507299e-08
5.1498328546911884e-08
7.290132453808392e-08
1.024337163717628e-07
1.1146700350618059e-07
9.053040950963113e-08
4.5102485863893365e-08
7.07464981413886e-09
4.385801297308416e-09
3.0093421175479943e-08
5.6039914016163966e-08
5.737871034777047e-08
3.911939583082483e-08
2.1472928885335228e-08
2.141038681229945e-08
3.244702503012797e-08
4.061410077037478e-08
4.442367520052917e-08
5.0700653885041893e-08
6.372567006330596e-08
7.887260546009795e-08
8.360798772395392e-08
7.403818348085067e-08
5.479318726436695e-08
3.7926372516179527e-08
2.710009456209843e-08
2.3591596437435873e-08
1.9502345883919196e-08
1.9204273918110975e-08
1.777687854877296e-08
1.9194649556590043e-08
2.0673538591103043e-08
1.8305979162454343e-08
1.2455278263835426e-08
5.250090731419632e-09
6.802809872262716e-10
3.5741221219481724e-10
2.4079038481268105e-09
3.670562480200982e-09
2.6208692381187615e-09
5.8124820744983e-10
1.0608731566288827e-10
2.324051163773761e-09
5.448302866940091e-09
7.579514986604942e-09
6.803646151729318e-09
3.481584328475321e-09
1.5762584906486804e-09
3.1710938216521218e-09
9.209592477012745e-09
1.3286218093469196e-08
1.3010018838554079e-08
8.366399974777333e-09
2.1823302291519048e-09
3.384529383502369e-10
3.1910871430442592e-09
7.4053613848360516e-09
9.73482873800565e-09
8.321049410913743e-09
5.656645308539332e-09
1.732257574065805e-09
5.314232637303792e-28
5.703150543198013e-29
5.0050724023143634e-30
3.553211146612673e-29
1.2727136951784215e-10
5.012609950827035e-10
8.925867943637605e-10
7.723208960464748e-10
2.611402680382324e-10
4.9956813647791435e-12
3.4043844495294967e-10
7.137299944932918e-10
5.532650486189566e-10
2.3186004240732845e-10
6.081107404794458e-11
5.990663486821045e-11
3.0375742281814823e-10
7.260522127427205e-10
8.610921602346742e-10
5.517774548924779e-10
8.97201405323402e-11
7.85138042044405e-11
5.065723784607335e-10
8.144467432332482e-10
8.89964938530442e-10
7.241810377382649e-10
4.0794938381770235e-10
2.2118359563443863e-10
2.2495329896034608e-10
2.700290298047434e-10
1.566119514971938e-10
4.8001811317725044e-11
3.1325069653633856e-13
2.3450844652678846e-11
1.6639437360458072e-10
4.054287139802943e-10
4.0423183484821713e-10
2.3996595832933654e-10
1.1105111363179285e-10
1.501253070947022e-10
2.943395738151181e-10
3.6536603710874453e-10
3.7973782196174886e-10
4.0187143769034907e-10
6.393587395644529e-10
1.1555193891154674e-09
1.187231135856609e-09
1.1289929801035424e-09
1.8368335584254506e-09
2.330690312765004e-09
2.0063111877716085e-09
1.2513397998438817e-09
3.5787403799333984e-10
2.933476987921096e-10
1.071327531717465e-09
1.3991603521434626e-09
9.584800013872793e-10
2.264224794867039e-10
6.327666041711564e-11
7.988020193615466e-10
1.3620123749213455e-09
1.348321833794694e-09
1.006437465390717e-09
4.571582674692853e-10
1.4155374475214676e-10
1.8320720851891012e-10
6.568229042284367e-10
1.6906976411587409e-09
2.3527419565053624e-09
2.097896910953151e-09
1.6435769829998849e-09
1.604188435946019e-09
2.680186641336028e-09
4.156269530261144e-09
3.943215562726959e-09
1.7594013299440111e-09
3.0877791259523253e-10
1.3378697166812898e-09
3.2427867475328374e-09
3.3520890831299842e-09
1.3497390901885395e-09
1.878316722721134e-09
7.234247131457661e-09
1.333434669985467e-08
1.3541597113473479e-08
7.155579579709158e-09
2.59373113036232e-09
4.91961449876448e-09
9.416722846653538e-09
9.215882816273445e-09
4.257571001929526e-09
3.278689645298708e-10
1.555206850154519e-09
4.474088625754645e-09
3.912639881001858e-09
7.905388926656886e-10
5.529969665082135e-10
5.77766816317137e-09
1.244752972789789e-08
1.4349342250671569e-08
8.756542176138625e-09
1.8065735301191453e-09
5.422738152941681e-10
6.042829312894443e-09
1.3606241508122658e-08
1.6494780996895028e-08
1.3274501513644943e-08
7.887488062355865e-09
4.690918368346142e-09
3.4186736631879197e-09
1.5558581044977012e-09
7.080547171297172e-10
4.707094487956543e-09
1.305816166066098e-08
1.6781460816167226e-08
1.0270478553074751e-08
1.3917838533308583e-09
2.2994412375115063e-09
1.5522229444896232e-08
2.772710568719483e-08
2.8490203394459443e-08
1.961215743474053e-08
1.2673742042561932e-08
9.592052122784939e-09
8.662705678129116e-09
6.652316718036922e-09
1.0142321629505843e-08
1.9571785609633778e-08
2.7318756806329847e-08
2.3310553819087295e-08
1.162693466760708e-08
2.444243975714577e-09
4.711537190807697e-09
1.4085506790835077e-08
2.2628485260147285e-08
2.762402137622807e-08
2.8027833849045525e-08
2.2388083792071704e-08
1.2003202299420418e-08
4.397735194219514e-09
1.012506938854279e-08
2.7440717660498336e-08
4.203221839779517e-08
3.8433575067602836e-08
2.145859522055035e-08
5.9569051272059864e-09
4.744934467711615e-09
1.6312629290569143e-08
3.044939545519557e-08
3.741578949780179e-08
3.709441320024666e-08
2.8638697221762456e-08
1.6993775910606146e-08
7.900934765422532e-09
1.0027943247351536e-08
2.298259059079324e-08
3.743326980313516e-08
3.9449332501121855e-08
2.639251759791069e-08
8.175483701132361e-09
8.449492838867959e-10
6.436408306613473e-09
1.5170290543176966e-08
1.9123325673405698e-08
1.8725637461490577e-08
1.5964158582564754e-08
1.1313447706465628e-08
5.217507185799978e-09
3.4353194627011688e-09
1.5095569488029027e-08
3.740829233529054e-08
4.9565249595993906e-08
3.994722093816005e-08
1.6001807295234424e-08
9.309281383163531e-10
3.699679543607503e-09
1.4254311958593577e-08
1.7031075455157707e-08
1.1860237684638207e-08
4.2104296736255544e-09
9.806828361417633e-10
2.2620521361199183e-10
1.1690647631767578e-09
5.845644977072033e-09
1.3431927705211606e-08
1.6250444251332833e-08
1.2389330879180245e-08
3.7599801263831305e-09
2.979114770247151e-10
4.003064154497819e-09
1.064198269665741e-08
1.3323277477547718e-08
1.0761537551654463e-08
5.857950322509257e-09
2.29741911809276e-09
1.0741492348231302e-09
1.7042879016232912e-09
4.212321558795523e-09
6.854735808427145e-09
7.904044992504745e-09
5.8692147638067e-09
3.2808067160048664e-09
1.6536459224461668e-09
4.193292113807405e-09
8.567832361317682e-09
1.1575463665797748e-08
1.0076860871168175e-08
6.0614437108360235e-09
3.681814223798162e-09
6.4884043624768505e-09
9.167994810165595e-09
9.330029515486971e-09
6.9206397978462075e-09
6.6131256682024565e-09
9.462201627340219e-09
1.1631212777209844e-08
1.0545957629431546e-08
6.013681713877144e-09
5.023667843035958e-09
7.82359327950047e-09
1.1241970772476455e-08
1.2036429483281913e-08
9.432217181763453e-09
7.175627748150606e-09
5.507884571836926e-09
3.760476871356394e-09
2.9805781530666823e-09
4.023356487888185e-09
7.2692832550063714e-09
9.926726072919679e-09
9.101781174541473e-09
5.474656427502219e-09
1.2668890282356194e-09
1.6344967796451183e-10
3.2187528683311756e-09
8.239885548779694e-09
1.1785213228629222e-08
1.180815884824023e-08
8.437753221263581e-09
4.285394632778788e-09
2.2473527577398816e-09
2.556232534789796e-09
4.7270274189427135e-09
7.1099340141757425e-09
9.388916136059961e-09
1.1850433738522383e-08
1.2747444607178925e-08
1.1092677129661188e-08
6.794533874386994e-09
2.1392711874193953e-09
1.9606772903295157e-09
8.278467647607331e-09
1.866260219016569e-08
2.5843234424626362e-08
2.520221380511994e-08
1.563930705422327e-08
3.7244578627833835e-09
4.1909515910740696e-10
7.2498509060652274e-09
2.1205015731875915e-08
3.005450543482343e-08
2.8059066717089975e-08
1.6287621493212854e-08
3.108496615664875e-09
7.754297894731988e-10
9.247952843346775e-09
2.1344334290975468e-08
2.8325928085264026e-08
2.6225622244894445e-08
1.674859205179987e-08
5.987140286254111e-09
1.7776425419384996e-10
4.319966411736026e-09
1.604087442308204e-08
2.8670522928982133e-08
3.388959592886082e-08
2.8890162655375363e-08
1.68719552068575e-08
4.498533643506408e-09
6.484519310694639e-10
1.892286114397175e-08
1.1161870880843379e-07
3.2474292539965826e-07
3.5719246375383436e-07
1.7153884425178547e-07
1.3255275162830777e-08
1.0659571796268644e-07
3.3447450132499794e-07
4.0036777646930947e-07
2.065604317172423e-07
4.722649367584945e-08
2.2758718137266292e-07
6.923670507754044e-07
9.895552374732449e-07
8.931893145915136e-07
5.112043121631125e-07
2.646473935801689e-07
3.2815115965780394e-07
4.951467551706562e-07
4.5311146575719037e-07
2.2488169166078936e-07
6.081508151615395e-08
1.2916392202642588e-07
2.907719936841615e-07
3.111886212993947e-07
1.3951783894431618e-07
1.837103416614654e-08
1.1929258209207047e-07
3.471448181321713e-07
4.2429205691691776e-07
3.001770799229801e-07
1.336126163371964e-07
1.2377460264128776e-07
2.349794099337187e-07
2.639000357757333e-07
1.3180714136982022e-07
4.768389716925486e-09
9.140447516043765e-08
3.6909375724216635e-07
5.818321283111465e-07
5.587930441262421e-07
3.6069422761216963e-07
2.2325424513511058e-07
2.3120122331958137e-07
2.711062756173628e-07
2.0430608741925664e-07
7.413950860693687e-08
1.8427735705964486e-08
1.0559648793294798e-07
2.4240437686821e-07
2.6809303832776816e-07
1.7335695289092137e-07
5.032366981307429e-08
2.3265202800441392e-08
8.595914283220223e-08
1.576949161975887e-07
1.800571788580939e-07
1.540066256505138e-07
1.0679296776584532e-07
8.60826390638176e-08
1.1574587718733124e-07
1.9063618055930536e-07
3.0280412206147554e-07
3.500884554964327e-07
2.951752485282749e-07
1.5032328192686705e-07
2.2142563542118002e-08
1.4288514441131207e-08
1.0022420693759846e-07
1.8361209340279075e-07
1.7648574152988904e-07
1.1565882658008126e-07
6.629192682080497e-08
8.065443151335584e-08
1.2209768706701856e-07
1.3905568862798827e-07
1.3377529087707812e-07
1.4351259679311034e-07
1.8803359557636382e-07
2.512268725888318e-07
2.711135160572038e-07
2.406896415143593e-07
1.7700242993622476e-07
1.2077598215245877e-07
8.9813354690443e-08
8.020699885140088e-08
6.291030252941426e-08
5.693661218487536e-08
5.0599096414283735e-08
5.616142836010926e-08
6.695272392443232e-08
6.226461334449942e-08
4.4345449270798854e-08
1.9349700713979488e-08
2.7139053142213225e-09
1.2197264084941183e-09
8.436464618942368e-09
1.2709379117172041e-08
9.696376484939808e-09
2.437889915860287e-09
1.8095969167756062e-10
6.629841448025173e-09
1.7421791567387328e-08
2.4804960501879872e-08
2.2304879621946976e-08
1.0633935601085463e-08
2.4570432287828506e-09
7.708685380830756e-09
2.8843343013395776e-08
4.431211729963249e-08
4.457930369843664e-08
2.866435923642692e-08
6.5111376598255164e-09
3.210282253362294e-10
9.349101342437392e-09
2.3217107505532864e-08
3.098379577380951e-08
2.5822109801239113e-08
1.7778057894829988e-08
5.451399537499164e-09
1.1786180392619909e-27
1.2672706842330306e-28
9.975977337312417e-30
8.350923793318762e-29
3.8821940073599423e-10
1.5503736707648826e-09
3.1053354880247997e-09
2.981437744066152e-09
9.73792740972791e-10
4.57448113418783e-11
1.2659402926459342e-09
2.5977764457576254e-09
2.0067339245334136e-09
7.052588726054897e-10
1.3028709898587319e-10
1.2909567418966946e-10
9.259126934400369e-10
2.4116858324474775e-09
2.7342236097380102e-09
1.7606862532654728e-09
3.3716685972481506e-10
2.1328418043008576e-10
1.697615133066414e-09
2.6124646059589377e-09
2.933015030437362e-09
2.6087310031319885e-09
1.418276173997076e-09
8.681052279749729e-10
9.311840845700191e-10
1.0857346525148495e-09
7.629736750063746e-10
2.619370267467391e-10
7.395645607870848e-12
4.423288633009441e-11
4.28175404865596e-10
1.253203557906562e-09
1.3492261799578138e-09
7.554501879459373e-10
3.9431673135576934e-10
4.519947303382286e-10
9.57890087938815e-10
1.1594340582259086e-09
1.3324939850612973e-09
1.3610311007033419e-09
2.0763550313017524e-09
4.049801707254253e-09
3.871889625781835e-09
3.144817902081944e-09
5.2024907738041406e-09
7.225410482655781e-09
7.04595335401362e-09
4.4706925321429395e-09
1.030182231620678e-09
1.114047486242853e-09
4.2189680426084e-09
5.760235134950054e-09
3.998491482907761e-09
7.538163958150152e-10
2.958199167647788e-10
3.1087171292816977e-09
5.298489269124777e-09
4.829491138714823e-09
3.0768569347600942e-09
1.3757262055037591e-09
5.743828034074578e-10
6.544526199502651e-10
1.8434834275165272e-09
4.916403493383851e-09
7.158194072813585e-09
6.771819037411572e-09
4.626248505950215e-09
4.268263938602431e-09
9.764696716823796e-09
1.6653024706293918e-08
1.6938333715103697e-08
7.766061253501363e-09
1.194041517515923e-09
6.2866617769991835e-09
1.585129483793028e-08
1.692324194440629e-08
7.047343191460659e-09
5.2970425129646595e-09
2.1763513855435596e-08
4.200515780354257e-08
4.396613607813633e-08
2.231758339680696e-08
7.645851071603897e-09
1.86708400479913e-08
3.6352628893003366e-08
3.647751755662125e-08
1.735981138252367e-08
1.6414305276640375e-09
7.301351658573498e-09
2.0245581277198484e-08
1.948109096546587e-08
5.4989364200898254e-09
7.328452685087179e-10
1.696346804106076e-08
4.0666625734312786e-08
4.8334979946630025e-08
2.948451615647418e-08
6.241270364222994e-09
4.559443205326097e-09
2.813786335053836e-08
5.773342735983397e-08
6.718890034086664e-08
5.2986657228696186e-08
3.32577451780309e-08
2.508464929055956e-08
2.1935590161201253e-08
1.1751439581200198e-08
2.528537202915961e-09
1.1904654378536588e-08
4.0619678388723125e-08
5.4796841638591265e-08
3.354358102014644e-08
3.6817652176141977e-09
1.0442819698940466e-08
6.38199288924573e-08
1.1208054050258673e-07
1.1537595204381014e-07
8.181028922198709e-08
5.84798962581744e-08
5.169178461129775e-08
5.0447898333298766e-08
3.467935163799026e-08
3.716300014420569e-08
6.634821536668029e-08
9.499497501309017e-08
8.187070703395094e-08
4.0233841592126416e-08
1.0455709251800102e-08
2.3913262405801932e-08
6.046737429578563e-08
9.07482984006983e-08
1.1097913578876524e-07
1.1919665675363252e-07
1.0702279953848268e-07
6.90744316716434e-08
3.3186712898677226e-08
4.4478209475788875e-08
1.0183506399638216e-07
1.5325008663771027e-07
1.412007805806666e-07
7.931436445931942e-08
2.3875474786959242e-08
1.9993200700776767e-08
6.05136292404301e-08
1.0917516297047232e-07
1.3353181192511333e-07
1.3711600903065645e-07
1.1660608963103045e-07
8.2293159387631e-08
5.305338986279782e-08
5.732685155562114e-08
1.0205550086185386e-07
1.5675907307649052e-07
1.6473163039222957e-07
1.1338851975905647e-07
4.063873030911351e-08
6.308899093042174e-09
2.3059672415746932e-08
5.118785920697171e-08
6.006710156796418e-08
5.662683465718431e-08
5.350366133280319e-08
4.75541044585378e-08
3.023438584183799e-08
2.2037842572633108e-08
6.372516408724717e-08
1.489873636106788e-07
1.9831613732152098e-07
1.6396856162739066e-07
6.822515239699849e-08
5.579008890299229e-09
1.3472943816067316e-08
5.3694904429088066e-08
6.063125625814491e-08
3.850505774992338e-08
1.0970636687300099e-08
2.9158551039003042e-09
2.628589731950571e-09
5.2254836003543906e-09
2.0641904777380994e-08
5.1021666760142803e-08
6.647579435779496e-08
5.365391140445077e-08
1.9291940233654928e-08
4.466891873707741e-09
1.630334694785772e-08
3.898936139473145e-08
4.7242041857780945e-08
3.7808843763879284e-08
2.0915382452043807e-08
9.087396233917133e-09
4.704827630530139e-09
5.246356083507752e-09
1.1323904550362602e-08
1.993693666793343e-08
2.6048522382297892e-08
2.2518783175906527e-08
1.489015601069947e-08
8.589854334167092e-09
1.8103410935202154e-08
3.380846964266443e-08
4.596614771216507e-08
4.169113877882923e-08
2.6909009845159475e-08
1.571621879004275e-08
2.4295533874069747e-08
3.369212308940604e-08
3.3221780889363386e-08
2.171542848714553e-08
1.88807735552642e-08
2.8700636206273222e-08
3.899454485384728e-08
3.682659359486659e-08
2.0640120470058367e-08
1.6873329669049832e-08
2.7939158157232096e-08
4.108796163864774e-08
4.484852026756107e-08
3.670526710219157e-08
2.8802130174723892e-08
2.3375322023140774e-08
1.7888900807698372e-08
1.342343483967785e-08
1.507657334353515e-08
2.6019079223827856e-08
3.605835454498864e-08
3.293048009960801e-08
2.0722254216957692e-08
5.452475568228721e-09
3.804090432998992e-10
1.0013220869356094e-08
2.602093917879966e-08
3.67782305603906e-08
3.5825111569355725e-08
2.5045780428546298e-08
1.2349558521759143e-08
7.089848338524236e-09
9.27099549369631e-09
1.5524606856149217e-08
2.1790682550765013e-08
2.7911780875448413e-08
3.489721313655682e-08
3.80557952810328e-08
3.4797188628324287e-08
2.2619854887956384e-08
7.351763907755955e-09
5.495429306524949e-09
2.4085610633119584e-08
5.90714780103798e-08
8.434888411059345e-08
8.321144471766525e-08
5.24982608194965e-08
1.258670705806548e-08
5.808052081049846e-10
2.100378629504297e-08
6.617971024564855e-08
9.48598438098405e-08
9.017264494175249e-08
5.1699304272566384e-08
9.038433658642092e-09
2.377612563760646e-09
2.951375294199718e-08
6.690606349340444e-08
8.788752220915259e-08
8.157117764172589e-08
5.075209006335748e-08
1.775544129906089e-08
3.4618084797363864e-10
1.46064468380592e-08
5.263895222315841e-08
9.315596144776289e-08
1.0858526416322118e-07
9.143237877287466e-08
5.344873302205438e-08
1.3928506858937515e-08
2.149884891779438e-09
4.099343275739916e-08
2.5544975302259167e-07
7.481609320097117e-07
8.308076793589649e-07
4.133726328072714e-07
3.563407874223621e-08
2.2152839166887927e-07
7.303568941338038e-07
9.015152017030797e-07
4.8123677208343e-07
8.43763420416936e-08
3.634604639742092e-07
1.2235462223041305e-06
1.7542136140022297e-06
1.4977168576141719e-06
7.270696209788668e-07
3.235459661397581e-07
6.031026107664249e-07
1.0699955055628649e-06
1.0015993001899652e-06
4.661921176370539e-07
5.7905464651621444e-08
1.914747220351036e-07
5.683578916192413e-07
6.532327252730066e-07
2.9829578093881813e-07
2.235307631263979e-08
2.0579714305639568e-07
6.579917590541705e-07
7.914987218418888e-07
5.040605652433431e-07
1.6924420922764325e-07
2.1405561781332816e-07
5.35923925527756e-07
6.605221121283951e-07
3.654704412168833e-07
3.2074313636380946e-08
1.1808864241860072e-07
6.020172425260099e-07
9.737806075893845e-07
8.778993198863389e-07
4.748343745141553e-07
2.5397415405122307e-07
3.697139414878621e-07
5.374501648746277e-07
4.2968546842333e-07
1.4639009165901401e-07
1.626854847924324e-08
2.0689995433343682e-07
5.033367891197738e-07
5.527993762386882e-07
3.3958301626308484e-07
8.427188787372489e-08
3.513698060818906e-08
1.610460805322682e-07
2.721497372980634e-07
2.640040086879715e-07
1.7195582629237075e-07
7.793233246860532e-08
3.5900111884729774e-08
6.50682546917847e-08
1.6619655515216742e-07
3.584816494978188e-07
4.839328815177036e-07
4.504070920345453e-07
2.5114358531017043e-07
4.275952209978686e-08
1.4446582208168822e-08
1.436349645319618e-07
2.7039855062938695e-07
2.5484173743843884e-07
1.6104814958450362e-07
1.0036376183566455e-07
1.513552634150336e-07
2.2817826729370342e-07
2.3124688124368383e-07
1.8270774825795386e-07
1.652862655638476e-07
2.3118072140491934e-07
3.4866764998926953e-07
4.0196315347265416e-07
3.6374139411390034e-07
2.6418231369147683e-07
1.810571339439859e-07
1.3370171813355944e-07
1.2012201726766734e-07
8.530457017051791e-08
6.98274281138672e-08
5.905434050888751e-08
7.379329566847871e-08
1.004479174805176e-07
9.982785529207969e-08
7.591282579883192e-08
3.26043123778418e-08
5.605755844244969e-09
2.021489960429279e-09
1.2940410037869272e-08
1.7676370369486132e-08
1.2965863441539356e-08
2.6246974036654654e-09
7.213277331210791e-10
1.2579538015062027e-08
2.9549999670323157e-08
4.18861706753008e-08
3.924410187071201e-08
1.8427790226332174e-08
1.1323027311544896e-09
7.1489415657882785e-09
4.203076843980694e-08
7.089989780684455e-08
7.477533327732378e-08
5.034300657766795e-08
1.1920188733593159e-08
4.002444874198135e-10
1.2392603075441373e-08
3.321310559129813e-08
4.331421857396179e-08
3.480641205349387e-08
2.513512178654969e-08
7.162832474533773e-09
1.659126454624383e-27
1.787686471848713e-28
1.1689741982182855e-29
1.3044423670271966e-28
4.900356713390091e-10
2.550064998917485e-09
5.446922406981907e-09
5.157357574111152e-09
1.7218677815601102e-09
1.372468245290985e-10