# vtk DataFile Version 4.1 
COMMENT
ASCII
DATASET STRUCTURED_POINTS 
DIMENSIONS 400 400 1 
ORIGIN 0 0 0
SPACING 0.002506265664160401 0.002506265664160401 0 
POINT_DATA 160000
SCALARS U double 1
LOOKUP_TABLE default
5.785534918125103e-07
1.302493232646412e-07
3.982021678373405e-07
4.854338508456936e-07
2.7477735999177444e-07
4.373487230043612e-08
9.156309880374801e-08
3.407986770600032e-07
4.636399380935842e-07
3.016700692300403e-07
5.990005849509919e-08
4.842900202053402e-08
2.7026523351870155e-07
4.1047525685485403e-07
2.7983173829589893e-07
5.5991554171629084e-08
2.2168910670546485e-08
1.891242382674879e-07
3.1227126570798525e-07
2.2784897008705695e-07
5.180388314565432e-08
8.708144362223502e-09
1.282279192719352e-07
2.364213702964816e-07
1.9098138159443995e-07
5.528702499348095e-08
3.1451800830022777e-09
8.955033400659493e-08
1.900563305888038e-07
1.7767436767953553e-07
7.656362295681555e-08
3.5842277163285662e-09
3.8264633630019815e-08
1.2149108465037876e-07
1.406128471467699e-07
8.031232199681976e-08
1.454336526477178e-08
4.483884002922676e-09
3.955809533913652e-08
6.13571073278179e-08
4.5343950654440766e-08
1.527643398545715e-08
1.2534362226394745e-09
1.549934939335876e-08
3.300728737689178e-08
2.8213213877474922e-08
7.582321512641898e-09
8.562683836781743e-10
1.4113182538257733e-08
2.739838079054633e-08
2.360804904298113e-08
9.514072236809507e-09
1.7077748210193489e-09
5.6375306071305565e-09
1.5037434722676163e-08
1.9802479833262258e-08
1.3864898458158575e-08
4.627777936053553e-09
4.176364244663064e-10
4.317680689584537e-09
8.965307434594136e-09
7.26756607260218e-09
2.157778394840999e-09
8.996057706010179e-11
7.652557919979475e-10
1.8883814095702233e-09
1.2252363262804804e-09
2.0979287912073414e-10
2.665722416068412e-10
1.7400512768245253e-09
3.840650805150307e-09
5.044263966990607e-09
4.016411593384364e-09
3.198477427759437e-09
2.817727571674134e-09
3.5399042645042455e-09
3.883794454231808e-09
3.6892039953876484e-09
3.0068704487225164e-09
1.5907376705669148e-09
8.520830539841695e-10
4.140312382260304e-10
4.237626955393477e-10
4.654624016194225e-10
8.030113654350178e-10
1.8457066774891323e-09
2.7625450250147803e-09
3.4099157162095546e-09
4.413791995762607e-09
4.283749899308585e-09
3.8915450959071475e-09
3.723583650027237e-09
2.8899659189484513e-09
2.1448256150078337e-09
1.1952042811934918e-09
5.599609153141853e-10
1.8747215925185342e-10
5.4340769943293675e-11
1.966659543114735e-10
3.653195117604981e-10
6.972035302221941e-10
5.285517748562235e-10
5.004771574879489e-10
4.508682616426745e-10
2.482701977284307e-10
1.8094547561539387e-10
9.850951451862324e-11
5.2087055835775165e-11
2.2338829661135074e-11
2.4599257361194404e-11
3.078711009511651e-11
1.1878209466077952e-10
3.46511648086658e-10
3.93750149317003e-10
5.173792614827112e-10
5.891680959610529e-10
3.963623576332438e-10
3.6313908084750515e-10
2.1320851308119268e-10
3.224937180447629e-11
1.3588837817702057e-29
1.1846654444681474e-30
1.146769246775234e-31
1.3041808682884866e-31
1.8352819902920295e-13
6.088083201305449e-13
1.4497243483968176e-12
2.4851127563436086e-12
3.9816438669673575e-12
5.817210608540939e-12
8.03309907850337e-12
1.0540174994678032e-11
1.3569872095430045e-11
1.6804378937127004e-11
1.953896424172672e-11
2.4283383012538624e-11
2.659179368035135e-11
3.213046355367802e-11
3.4194519062844787e-11
4.164422131770947e-11
4.3329932038806073e-11
5.1761504925353865e-11
5.640291862312141e-11
6.285769524528344e-11
7.483168814240632e-11
7.788944085271735e-11
9.964722898348499e-11
1.0001737256814349e-10
1.2769105854282642e-10
1.3888330976004566e-10
1.542455195547319e-10
1.9174423568434903e-10
1.9303618240025545e-10
2.416101360450624e-10
2.5568433785306424e-10
2.8365794099511514e-10
3.3209637135671944e-10
3.3842902567005847e-10
3.905727375167581e-10
4.190871065522666e-10
4.4066015888222e-10
4.822896136127682e-10
5.068777252769334e-10
5.28757224596765e-10
5.451466858207725e-10
5.679303754080573e-10
5.673468401489296e-10
5.627993758539328e-10
5.660208079035562e-10
5.425427358406178e-10
5.112116881610132e-10
4.825711291445105e-10
4.5071394159055863e-10
3.9033449859192505e-10
3.373610244495782e-10
3.078542791471856e-10
2.3557446784604345e-10
1.7503043592308364e-10
1.4952583593118884e-10
9.73704137805118e-11
5.748636210017307e-11
4.614070640230856e-11
3.7688234012146226e-11
4.795394396621301e-11
9.047032991921036e-11
1.5991111172384944e-10
2.5160476341848745e-10
3.8629721547626175e-10
5.483430443363362e-10
7.290150953071031e-10
9.779946109576259e-10
1.226935880987082e-09
1.3935609200182681e-09
1.521244954923425e-09
1.581311568826018e-09
1.592849283080794e-09
1.699176929144155e-09
1.844955383268287e-09
1.8561921896717985e-09
1.6813097215460136e-09
1.3798065493579328e-09
1.1297288256107755e-09
9.799516717234621e-10
7.480249017112069e-10
4.690385540718455e-10
3.288879915377428e-10
2.575924609014281e-10
2.2821531844878892e-10
3.7908597428529443e-10
6.073275804563241e-10
7.489223712539409e-10
9.141638829646459e-10
1.1903538352145251e-09
1.4776958576681114e-09
1.7140691806258384e-09
1.9211589587724238e-09
2.1495505714036537e-09
2.431542854498785e-09
2.659746756499122e-09
2.679766943410036e-09
2.5208951158697805e-09
2.321279562086597e-09
2.1187146473528403e-09
1.86651198630474e-09
1.5456202466697917e-09
1.1990407761129397e-09
8.997093013637662e-10
6.805229870731311e-10
5.153198802649324e-10
3.802260536920058e-10
2.8390394058273323e-10
2.3981851228783634e-10
2.4465406019069586e-10
2.7342783032264765e-10
2.9164209708277674e-10
2.8129688130049823e-10
2.5725943515396873e-10
2.6953720294941563e-10
3.570608072148341e-10
4.665034139531706e-10
4.933258357413066e-10
4.3428417998337277e-10
3.797803734012261e-10
3.4656438674425806e-10
2.652273056818963e-10
1.2828321134863685e-10
2.3329811406132852e-11
3.307312364514024e-11
1.8307134581259935e-10
4.977801023052244e-10
1.0863374044024854e-09
2.0733494971509285e-09
3.3465894337443822e-09
4.5488311144053055e-09
5.540387438425313e-09
6.642224694958331e-09
8.087634781710127e-09
9.446255493664757e-09
9.980339247250156e-09
9.453257301565553e-09
8.287522146699014e-09
7.02018220907074e-09
5.829687804772519e-09
4.56556585123149e-09
3.1186127951186863e-09
1.7006316774830596e-09
6.877524207476279e-10
2.2514783703190196e-10
1.798615825391837e-10
4.91336730051825e-10
1.3061948828093988e-09
2.679467807568176e-09
4.357944612233777e-09
5.955765904916311e-09
7.208415132785477e-09
8.020638468351625e-09
8.380983865416908e-09
8.258652878597936e-09
7.574619733826098e-09
6.359300261621645e-09
4.92868240755184e-09
3.708452665069213e-09
2.8218757772873555e-09
2.0386539972742197e-09
1.1928869946449645e-09
4.583080029481736e-10
1.578511135711317e-10
5.125781846698124e-10
1.6196256975540323e-09
3.3927511123937532e-09
5.368772198925497e-09
6.793576147228254e-09
7.126930152929672e-09
6.4258832157176814e-09
5.184374953006607e-09
3.924584765561376e-09
2.9826101047540716e-09
2.46282152138469e-09
2.1990289118609768e-09
1.8560509250387117e-09
1.2612592941470814e-09
6.37633052843713e-10
4.124672620545264e-10
8.132079266005675e-10
1.7115135245070894e-09
2.7913580022057494e-09
3.7479051637166955e-09
4.360317160005165e-09
4.536843355757691e-09
4.3626570366251295e-09
4.0298441133795185e-09
3.6575274901656384e-09
3.211091713269453e-09
2.6226322650646038e-09
1.939043122076852e-09
1.3049412348256167e-09
8.349213553141799e-10
5.560378505584358e-10
4.5601403086940495e-10
5.244457143550852e-10
7.334125934058485e-10
1.023326018540052e-09
1.3367124779203946e-09
1.6448516986759366e-09
1.9202886945882455e-09
2.1038645642646002e-09
2.1316778560935145e-09
1.994871986370394e-09
1.7501777999094762e-09
1.4658190437814523e-09
1.17338665394104e-09
8.791869344151323e-10
6.035998230107393e-10
3.878930853515554e-10
2.636098129704951e-10
2.3035314535242514e-10
2.6744379972192683e-10
3.5544584088090307e-10
4.7740027318711e-10
6.061557930718435e-10
7.048084053788763e-10
7.45707753287446e-10
7.257317701376854e-10
6.605354381436333e-10
5.674452758052482e-10
4.575383232832494e-10
3.412641806226074e-10
2.342043660163633e-10
1.5277313166198069e-10
1.0541339465286638e-10
9.042662119813245e-11
1.0156097389059503e-10
1.3251838922486429e-10
1.7483708988568517e-10
2.1427453393936874e-10
2.338770738219152e-10
2.2353686552530793e-10
1.8705227854126276e-10
1.3932239257163578e-10
9.605293075365679e-11
6.51551958494168e-11
4.62561232233054e-11
3.634702093013185e-11
3.450235988607144e-11
4.123863062279565e-11
5.461187505637511e-11
6.834326287344077e-11
7.447172385805145e-11
6.824636662197414e-11
5.120860030835841e-11
3.0336638449493047e-11
1.403561387377547e-11
7.538709086974465e-12
1.0471575619758353e-11
1.7941253793611233e-11
2.4109990271653434e-11
2.553748299634527e-11
2.2179137524049763e-11
1.6167357407797774e-11
1.0050659217232068e-11
5.73927131495075e-12
4.1064248318094285e-12
4.795273787078486e-12
6.378903904334697e-12
7.211657732341004e-12
6.5294474288425116e-12
4.801887463402298e-12
3.039053343404139e-12
1.8892943798671627e-12
1.4237872785194285e-12
1.4911845312028898e-12
1.9357547668878846e-12
2.4963974214979385e-12
2.7897425990148506e-12
2.561386234084382e-12
1.90182253511221e-12
1.1323015460198646e-12
5.126911529232273e-13
1.3166780483074803e-13
3.270599962207459e-31
1.5008644196371425e-07
8.222499872605963e-07
2.5138075133499004e-06
3.064491758339066e-06
1.7346399588862326e-06
2.760935511258793e-07
5.780280076538476e-07
2.1514254419707033e-06
2.9269091280909954e-06
1.9044107436728722e-06
3.7814263521686135e-07
3.0572708783691333e-07
1.706155389124097e-06
2.5912862060245227e-06
1.7665477062127389e-06
3.5346866724812563e-07
1.399499518274012e-07
1.1939210017249088e-06
1.971334958328685e-06
1.438386074150776e-06
3.2703234987269326e-07
5.497357998823097e-08
8.094890809803079e-07
1.4925027158831148e-06
1.2056449480660713e-06
3.4902105022227726e-07
1.985518402983487e-08
5.653216396871205e-07
1.1998052004302683e-06
1.1216391985715017e-06
4.833379277752984e-07
2.262684457947043e-08
2.415605219759055e-07
7.669601676400321e-07
8.876738003482188e-07
5.070030621547262e-07
9.181070276570958e-08
2.830627808169224e-08
2.49726006810574e-07
3.8734082799139744e-07
2.862514899383014e-07
9.643848685806898e-08
7.912808237807294e-09
9.784572788407321e-08
2.083714597887962e-07
1.7810698873421235e-07
4.7866381267165037e-08
5.405530331551159e-09
8.909500542057082e-08
1.7296303498033947e-07
1.4903507778998552e-07
6.006131609312326e-08
1.0780999007373192e-08
3.558912517707267e-08
9.492971018383107e-08
1.2501092813776132e-07
8.752761469191616e-08
2.9214665025425874e-08
2.6364938879510066e-09
2.7257054417034214e-08
5.659702284137361e-08
4.587936398311348e-08
1.362182323254229e-08
5.679114600183512e-10
4.830977616236316e-09
1.1921149001345944e-08
7.734785321136768e-09
1.3243999113446192e-09
1.6828419278609565e-09
1.0984756805950774e-08
2.4245615995953003e-08
3.184389660259426e-08
2.5355174973029065e-08
2.0191644442443364e-08
1.7788011498573754e-08
2.2347035389031535e-08
2.4517977218402973e-08
2.3289548553322304e-08
1.8982050164920395e-08
1.004215604791303e-08
5.3791087947529614e-09
2.61373473446108e-09
2.67516837919215e-09
2.938414144572799e-09
5.0693244958939646e-09
1.1651748001551638e-08
1.7439650008852454e-08
2.1526431646145533e-08
2.7863794769304232e-08
2.704285298264015e-08
2.4566906186777423e-08
2.3506583620230012e-08
1.8244044425557544e-08
1.3540053724756291e-08
7.545196246343547e-09
3.5349731111310345e-09
1.1834916043544604e-09
3.430474437308187e-10
1.2415310450300136e-09
2.3062228375712577e-09
4.4013709973637075e-09
3.3366905811792155e-09
3.1594585373204777e-09
2.8462829065042633e-09
1.5673030907394036e-09
1.142289351610091e-09
6.218799839244494e-10
3.288199886489143e-10
1.4102263216342805e-10
1.5529246943391355e-10
1.9435571908550786e-10
7.49858604817235e-10
2.1874908144129287e-09
2.4857023986369918e-09
3.266159704328715e-09
3.7193549053151763e-09
2.502192989151515e-09
2.292458011424803e-09
1.3459624416524933e-09
2.0358682019034674e-10
8.578487352129738e-29
7.478665702107641e-30
7.239431076627768e-31
8.233153735139872e-31
1.1585938071026338e-12
3.843341530875972e-12
9.151954091758892e-12
1.5688249896645683e-11
2.5135690050674587e-11
3.672342572595528e-11
5.071209162094451e-11
6.653899258646826e-11
8.566514495376493e-11
1.0608423921635776e-10
1.2334738251347562e-10
1.5329838859995446e-10
1.6787113719185833e-10
2.028361651753844e-10
2.1586632589774924e-10
2.6289549603563843e-10
2.735372067501769e-10
3.267648207199208e-10
3.56065566844385e-10
3.968138783312634e-10
4.724044093247596e-10
4.91707673741657e-10
6.290622531354614e-10
6.313989298270679e-10
8.060999368634249e-10
8.767554166011394e-10
9.737353969294088e-10
1.210460763994996e-09
1.2186166848402579e-09
1.5252588367114744e-09
1.6141077609689888e-09
1.7907021128678481e-09
2.096488720809208e-09
2.1364660872780475e-09
2.4656437392383183e-09
2.6456518881371303e-09
2.7818402502634745e-09
3.044642526420491e-09
3.1998646342662542e-09
3.337987563323221e-09
3.441452471584334e-09
3.585283456677674e-09
3.581599661266248e-09
3.5528920076300603e-09
3.5732285621346987e-09
3.4250140150584673e-09
3.2272244764282147e-09
3.0464197037338687e-09
2.8453087005912803e-09
2.4641397624958764e-09
2.1297239102906864e-09
1.943450996613442e-09
1.487156311682082e-09
1.1049483413864439e-09
9.439405411707547e-10
6.146889633193161e-10
3.6290522913877753e-10
2.912813233924301e-10
2.379217731012521e-10
3.0272809736753607e-10
5.71129475063669e-10
1.009501671733121e-09
1.5883538457640407e-09
2.438652827844579e-09
3.461630739561685e-09
4.602193990759688e-09
6.173974929351084e-09
7.745514427444773e-09
8.797400401104049e-09
9.603455998497299e-09
9.982650080111403e-09
1.0055486430897888e-08
1.0726721439492992e-08
1.1647005161834432e-08
1.171794191367739e-08
1.0613927677101583e-08
8.710570536527636e-09
7.131856728184339e-09
6.186329643751461e-09
4.722200856682837e-09
2.9609900108786238e-09
2.07623456363466e-09
1.626153536815525e-09
1.440698792007704e-09
2.3931290367891854e-09
3.833993780363745e-09
4.727866485505954e-09
5.771018399800265e-09
7.514575901880721e-09
9.328535225276571e-09
1.082073462347105e-08
1.212807014871485e-08
1.356988186695996e-08
1.5350068860419023e-08
1.679069558161392e-08
1.691708087114826e-08
1.591414008883324e-08
1.4653988539164519e-08
1.3375217990615408e-08
1.1783089681337782e-08
9.757334597061694e-09
7.569415626679463e-09
5.679768178768161e-09
4.2960685201757875e-09
3.2531590519058027e-09
2.4003262356240672e-09
1.792255081840854e-09
1.513948508376319e-09
1.544474802884934e-09
1.7261205230424647e-09
1.8411052326447372e-09
1.7757969966249346e-09
1.6240511810432068e-09
1.7015594103403585e-09
2.2540865228691544e-09
2.944985943617185e-09
3.114313011280962e-09
2.7415893803399596e-09
2.397512703820364e-09
2.187823747893524e-09
1.6743514918307795e-09
8.098381339214218e-10
1.472785934749839e-10
2.0878707707855811e-10
1.155709741818325e-09
3.142432317651524e-09
6.857931346911967e-09
1.3088832670211034e-08
2.112665962702762e-08
2.8716282220298785e-08
3.497587078750439e-08
4.19316510360262e-08
5.105636965742915e-08
5.963319627807035e-08
6.300480964675877e-08
5.96773979392608e-08
5.231823712204332e-08
4.43176562249556e-08
3.680219292554848e-08
2.882192681634927e-08
1.9687467595105704e-08
1.0735905109497187e-08
4.341707158425587e-09
1.4213341113111853e-09
1.1354468510445038e-09
3.1017560007196622e-09
8.24586799247845e-09
1.691519245870977e-08
2.7511236235838255e-08
3.759811042929197e-08
4.550595045364801e-08
5.0633429127491735e-08
5.290825091327817e-08
5.2135988533464454e-08
4.781776076477433e-08
4.014557947821754e-08
3.111424263285357e-08
2.341106333745897e-08
1.7814198675037574e-08
1.2869803706247368e-08
7.530567465270085e-09
2.8932491942387456e-09
9.96497124666205e-10
3.2358510221083714e-09
1.0224523059324512e-08
2.1418073345963054e-08
3.389248221430053e-08
4.2887116497047936e-08
4.499154452838857e-08
4.0565910515531276e-08
3.2728402207530486e-08
2.4775482072404767e-08
1.8828897219331108e-08
1.554752772472504e-08
1.3882233315635424e-08
1.1717050125222412e-08
7.96219444793292e-09
4.025308972334664e-09
2.6038615208822116e-09
5.133694291285838e-09
1.080460104090483e-08
1.7621543238962196e-08
2.366012272369763e-08
2.752621387507585e-08
2.8640604787601067e-08
2.754098526484383e-08
2.5439973028927243e-08
2.3089578178333584e-08
2.027127707192612e-08
1.6556395783777658e-08
1.2240970950658782e-08
8.237953847415294e-09
5.270768834443936e-09
3.5102072247173048e-09
2.8787675949085805e-09
3.3107694622810207e-09
4.6299549239073036e-09
6.4601472362230466e-09
8.438522292418701e-09
1.0383772094799179e-08
1.2122576264398073e-08
1.3281471011175722e-08
1.3457053334974316e-08
1.2593412574181599e-08
1.104868445846285e-08
9.253558174937812e-09
7.4074639090020705e-09
5.550212680596505e-09
3.81046084802048e-09
2.4487273829496644e-09
1.6641404340839266e-09
1.4541946636193265e-09
1.688343980624562e-09
2.2438914138719043e-09
3.01377664549348e-09
3.826596412471063e-09
4.449379757363138e-09
4.707572947576185e-09
4.5814667116379304e-09
4.1698892707123715e-09
3.582221074991287e-09
2.8883902891879093e-09
2.1543641159601514e-09
1.4785070059984635e-09
9.64440370316507e-10
6.654634376434075e-10
5.70853546602402e-10
6.41143519172399e-10
8.365743569396312e-10
1.1037277686202829e-09
1.3526921168253446e-09
1.4764408455304466e-09
1.4111642212298163e-09
1.1808409425292719e-09
8.79527299227376e-10
6.063718344859744e-10
4.1131775286304554e-10
2.92009937386082e-10
2.2945483897861273e-10
2.1780969194858175e-10
2.603350455444806e-10
3.4475890118940793e-10
4.3144367754492263e-10
4.701319934625776e-10
4.308319819173595e-10
3.232743932621357e-10
1.9151193997333116e-10
8.860532277360016e-11
4.7591060708480885e-11
6.610593210108524e-11
1.1326120806986745e-10
1.5220377885143202e-10
1.612153870907134e-10
1.4001451285506736e-10
1.0206279072628429e-10
6.344873206395484e-11
3.623140333723682e-11
2.5923418878587892e-11
3.027204834166488e-11
4.026933516897316e-11
4.552642063634374e-11
4.121970026881487e-11
3.0313799769900344e-11
1.9185217322174685e-11
1.1926912484765376e-11
8.98821615560909e-12
9.413687772438745e-12
1.2220211917563898e-11
1.5759488775641885e-11
1.761134537213384e-11
1.6169756168837556e-11
1.2006001383136915e-11
7.1480980357825415e-12
3.2365641785578852e-12
8.312047090236482e-13
3.8524366660906296e-14
5.407999833867772e-07
3.04203352169922e-06
9.139370781758778e-06
1.1115350161089219e-05
6.278422522644469e-06
9.91781870288315e-07
2.1134570534059695e-06
7.824072585243954e-06
1.0612392390104129e-05
6.880621128378386e-06
1.3566408432182123e-06
1.1160658724216889e-06
6.2135326938178906e-06
9.450793237093299e-06
6.430585586655467e-06
1.3038062533237964e-06
4.840961061108641e-07
4.29064961492986e-06
7.142227196558548e-06
5.2872131670514115e-06
1.264582366746153e-06
1.665661933891284e-07
2.8325024604551066e-06
5.345022530424283e-06
4.398841213091468e-06
1.2943322390301313e-06
5.4415662306014866e-08
1.998519951034264e-06
4.278149059384066e-06
3.9523437327492075e-06
1.6598917178426844e-06
5.8194117701760774e-08
8.970099314034263e-07
2.764114334437552e-06
3.139670460218698e-06
1.7562636042902745e-06
2.7368089965454284e-07
1.4146735217186496e-07
1.0229408126727426e-06
1.531711380142221e-06
1.0742174010082843e-06
3.189049624655007e-07
2.3821604528972078e-08
4.017201744787269e-07
8.022089363850566e-07
6.654393574390707e-07
1.7570795740416993e-07
1.726951396362901e-08
3.0682639821482345e-07
6.064471961143036e-07
5.154612931256221e-07
1.9141783875852808e-07
2.7475819515524656e-08
1.2801522532769933e-07
3.390672282525717e-07
4.4019326161654977e-07
2.94905512373635e-07
8.818571366067953e-08
9.097462932997001e-09
9.379935941119927e-08
1.9140372266427493e-07
1.6232332346354087e-07
4.846865531810327e-08
9.936737049522134e-10
1.6481820811204748e-08
4.1389770637020956e-08
2.5931236938390584e-08
3.088318581241616e-09
6.891848014099649e-09
4.112479793943849e-08
8.64246800317749e-08
1.0618130847646278e-07
7.47114358980244e-08
5.855555717002765e-08
5.5865794629562995e-08
8.13533620042893e-08
8.763815985878932e-08
7.924478916254734e-08
6.067390783228041e-08
3.144869470603542e-08
1.7274995345451137e-08
8.90677542025837e-09
1.0512538364791818e-08
8.078368692123578e-09
9.665176853683162e-09
2.775145085481793e-08
4.263738133277992e-08
5.2196641528625066e-08
6.827111517362341e-08
6.371652577466138e-08
5.730390482801453e-08
5.690355277152641e-08
4.8094024257284353e-08
3.707756804979912e-08
1.792124983717152e-08
7.876442950103413e-09
2.239265349242808e-09
2.6622573494790365e-09
4.542440108905711e-09
6.211384505174774e-09
1.263213846407697e-08
8.109138627193693e-09
7.034332118779457e-09
6.226199764361633e-09
4.221425280497893e-09
3.604796242479021e-09
1.7502436951781678e-09
2.4377194227789054e-09
1.34338239150465e-09
3.045657415099545e-11
2.888957642936451e-10
2.3933743810441634e-09
7.2140072614775205e-09
9.27289528106177e-09
1.2645520307620645e-08
1.3555619125191132e-08
1.1160682278644956e-08
8.117294571930773e-09
4.183198153100977e-09
9.6134740327781e-10
2.504742968713455e-28
2.2193087675451256e-29
2.0771998373483674e-30
1.2357017035457537e-30
1.6524321126258888e-12
5.621316948096203e-12
1.3093405109958367e-11
2.1950438601971808e-11
3.577260663114017e-11
5.5386557325276645e-11
7.422000196065288e-11
1.0164554241732796e-10
1.2809406465751952e-10
1.6810924290136749e-10
1.8246785440056547e-10
2.44255437584649e-10
2.4047939390456045e-10
3.2296407442067025e-10
3.0828651057894954e-10
4.2196717209430773e-10
3.8717454311319735e-10
5.297892679439143e-10
5.235195499459678e-10
6.412697647793786e-10
7.441266534150209e-10
7.971831316545809e-10
1.0850734028017802e-09
1.0226993800492587e-09
1.5181573540868017e-09
1.483136457609951e-09
1.9134547336669215e-09
2.261754214597628e-09
2.373849262672904e-09
3.1144299495126268e-09
3.1699313204115858e-09
3.844058747883743e-09
4.3496577210880045e-09
4.644339553866024e-09
5.441314864134522e-09
5.927688913668793e-09
6.377254867972923e-09
7.0792424444005104e-09
7.693337595659346e-09
7.975857576070215e-09
8.663267326997783e-09
9.014127055020954e-09
9.194458484053023e-09
9.549018508046983e-09
9.43084327399459e-09
9.567281347593543e-09
9.095086950029047e-09
8.691399406789146e-09
8.543664875256539e-09
7.226893863730823e-09
6.747098605354771e-09
6.247773336947208e-09
4.6637701229876685e-09
4.104199786554281e-09
3.534313693430793e-09
2.5044594460896477e-09
2.1052245314556518e-09
2.0323676296463618e-09
2.0968366790408126e-09
2.4073503413516547e-09
3.6178475276012257e-09
5.190499061958278e-09
6.835387987421032e-09
9.789988327291119e-09
1.2776904497747053e-08
1.5716950003132442e-08
2.036281112777576e-08
2.4755061117732106e-08
2.8005500117852467e-08
3.075334173749871e-08
3.1309889154313814e-08
3.0632809734460464e-08
3.0849800141701635e-08
3.12693442622177e-08
3.092629729537524e-08
2.756564942471961e-08
2.0864430352668278e-08
1.5666126235898272e-08
1.2595722853965912e-08
7.921899516909389e-09
3.272960891462489e-09
1.1716701124722468e-09
3.3171530127712925e-10
1.3758854592171568e-09
5.443053467304881e-09
1.0351807513269427e-08
1.5128695243126204e-08
2.1835158709937694e-08
3.12171878973345e-08
4.080094585071068e-08
4.7890892122988007e-08
5.3387560450587865e-08
5.973157786155122e-08
6.547694056597613e-08
6.705370952302863e-08
6.40262280155241e-08
5.8111782957680095e-08
5.071854316830237e-08
4.327817354928398e-08
3.626300142310269e-08
2.8896944268893997e-08
2.163777443970777e-08
1.6028698278687413e-08
1.2149757427847528e-08
9.011850875860001e-09
6.392647956160013e-09
4.6385507529766e-09
3.7608391995950105e-09
3.4841740416357072e-09
3.6233517800780192e-09
3.876041848566413e-09
3.728701315408896e-09
3.6624535923753608e-09
5.352316460222759e-09
8.814974556636843e-09
1.1384622927223847e-08
1.1531914690148662e-08
1.081023770783324e-08
1.055250929388874e-08
9.855351979054555e-09
7.589903535345354e-09
4.155776327274598e-09
1.4048353650520315e-09
1.4205214446956185e-09
4.995029100861108e-09
1.3005890143436687e-08
2.8787517736108425e-08
5.3979552007263665e-08
8.264628439287112e-08
1.0710478231895876e-07
1.2906784162189641e-07
1.5638247536410387e-07
1.886900799895639e-07
2.1398412491074281e-07
2.2003919997110047e-07
2.049593116805371e-07
1.7729419474768714e-07
1.481027516934484e-07
1.2179526451347528e-07
9.492750480599623e-08
6.50740179922623e-08
3.7385481877108e-08
1.9300763498944595e-08
1.2875622551610609e-08
1.642102751668737e-08
3.0193336517488836e-08
5.5837813362637e-08
9.125544231332738e-08
1.287540436663095e-07
1.5906228393101867e-07
1.7770382338126468e-07
1.8703705885729256e-07
1.9014301272133863e-07
1.8388527255324882e-07
1.6246712315026348e-07
1.277331813515133e-07
9.034779472232424e-08
5.9451809946459035e-08
3.611706681707517e-08
1.8143296509877654e-08
5.9003749100949605e-09
1.375685929860078e-09
6.0687110076470715e-09
2.205737550569374e-08
5.1111772568306686e-08
8.985014708231676e-08
1.2785822067063215e-07
1.5261559448340613e-07
1.560619475240832e-07
1.379091375548392e-07
1.0596806899674636e-07
7.320892550568699e-08
5.0435784177160646e-08
3.924966807553973e-08
3.293902902203957e-08
2.4699437722718218e-08
1.4083011996019526e-08
6.222642781698189e-09
7.184567579677757e-09
2.0097254954815977e-08
4.288377955460163e-08
6.82103632976339e-08
8.73496690099977e-08
9.589994232820657e-08
9.553736741381596e-08
9.010396495395229e-08
8.145669511704094e-08
6.979711625887164e-08
5.614688723182811e-08
4.245871821306541e-08
2.9893231321628627e-08
1.8783618875763754e-08
1.0234021693313521e-08
6.116066376164343e-09
7.005162493991782e-09
1.1294331836333124e-08
1.6967562057442465e-08
2.3334004466712193e-08
3.029290550326475e-08
3.673299288774416e-08
4.085722207227042e-08
4.194107941757696e-08
4.0762646157550284e-08
3.8127588502890326e-08
3.38363860101471e-08
2.7583524758749867e-08
2.0247618911208787e-08
1.3546228078395847e-08
8.57299897485655e-09
5.28635894543422e-09
3.431621531441105e-09
3.2910941600439675e-09
5.133119048180147e-09
8.306031085727268e-09
1.14414023714693e-08
1.3579872959291468e-08
1.4735055500266361e-08
1.526008117515453e-08
1.5028282635419928e-08
1.3571330952864282e-08
1.0901188055735137e-08
7.82048411618332e-09
5.273293674904606e-09
3.565392352227107e-09
2.3889642772920866e-09
1.5054713581989288e-09
1.152053738936355e-09
1.6846321840097102e-09
2.9692658197620375e-09
4.30970280025897e-09
5.002562291107626e-09
4.879169633049944e-09
4.278599106538431e-09
3.5850703939727733e-09
2.8914965504780566e-09
2.098912913705286e-09
1.2288716293595208e-09
5.350411980445729e-10
2.9295803583523903e-10
5.283992447095663e-10
9.8821872381089e-10
1.3631316101374437e-09
1.5105265363450967e-09
1.473859475999451e-09
1.341038902545837e-09
1.1292283444511485e-09
8.09500488634207e-10
4.1646656731221824e-10
9.85184986907378e-11
2.7841668615016447e-11
2.455508537718817e-10
6.037605860669822e-10
8.717528820227267e-10
9.002182313946853e-10
6.965562392637693e-10
3.8379437388614865e-10
1.1586138280386413e-10
2.379422958574626e-12
5.485698527656562e-11
1.8259563085113785e-10
2.6434049438793497e-10
2.4442385904303997e-10
1.5842655410003108e-10
7.341163940934425e-11
2.405072666367704e-11
7.74908331140874e-12
1.4491663465421376e-11
3.696604729994666e-11
6.028184943054814e-11
6.682212039830854e-11
5.340059846477799e-11
3.223561590668639e-11
1.6098120757015584e-11
7.31547164163536e-12
2.0448740140802262e-12
4.59014515188951e-13
1.008086789076846e-06
5.81689988263602e-06
1.7400842814613316e-05
2.1041390444575665e-05
1.1813601750770908e-05
1.8406858551034296e-06
4.05737704006218e-06
1.4999487214510064e-05
2.0290163320162923e-05
1.3149908860119489e-05
2.584530440756449e-06
2.1343475874127693e-06
1.1982609959790011e-05
1.827708006909209e-05
1.253788949434691e-05
2.608130540235027e-06
9.060456408175923e-07
8.189632414435687e-06
1.3867248522557398e-05
1.0499916206856111e-05
2.666089265389252e-06
2.450764635105783e-07
5.190251778144264e-06
1.0194375306494813e-05
8.673104647441496e-06
2.723649964683288e-06
5.115963315750002e-08
3.553500217160514e-06
7.917007626465754e-06
7.416199020757747e-06
3.1196160650387567e-06
8.631193965408551e-08
1.6140613663438657e-06
5.101842086830715e-06
5.8213310419986255e-06
3.2425752219729193e-06
4.810299125472838e-07
3.0768079080068004e-07
2.1673974495825725e-06
3.2017809445040353e-06
2.1679344957116994e-06
5.758579953928682e-07
5.2120228468996154e-08
8.741459055339074e-07
1.6544747392726251e-06
1.3473106203981938e-06
3.76379681571584e-07
2.5327875866871448e-08
5.115320016089345e-07
1.0612917968035727e-06
9.249715245390603e-07
3.230362084678152e-07
1.3789381332192565e-08
2.1872183108486403e-07
6.264447625430543e-07
7.714597705350564e-07
4.698578774715442e-07
1.1543578132423192e-07
1.8980430434670832e-08
2.053231852683883e-07
3.9072154713818463e-07
3.2282233511548815e-07
1.0107987673455854e-07
3.862115458270595e-09
3.5804274218194075e-08
9.996590744254772e-08
7.31843462088082e-08
1.6865342475014074e-08
4.732146334637065e-09
5.15113892194228e-08
1.2542125553006583e-07
1.5208483648158105e-07
9.378244722572464e-08
6.340565325033371e-08
6.40007898827652e-08
1.1447959953873548e-07
1.2709235807857891e-07
1.1285142047153956e-07
7.844624798867297e-08
3.730423697890404e-08
2.2948360986528107e-08
1.4348779936394469e-08
1.8739729010388807e-08
1.0620444314588694e-08
5.957919179729992e-09
2.6725397020701188e-08
4.4605174042265386e-08
5.500203428061563e-08
7.723105132939293e-08
6.913108657152025e-08
6.245909897976516e-08
6.242647217587841e-08
5.559176186717348e-08
4.5380999143718056e-08
1.8801648775969198e-08
8.951689402661665e-09
4.21573956765047e-09
6.84927710223404e-09
8.146643535432391e-09
7.749882642668308e-09
1.288871715800866e-08
5.236542917134015e-09
4.50924153491236e-09
3.04241166326784e-09
4.319125340977898e-09
6.194181023212385e-09
3.1383889940449486e-09
6.322513235878606e-09
4.497924557052634e-09
6.182553017815252e-10
1.2892850502269406e-09
3.4595892617379417e-09
9.649548656887375e-09
1.7729317714604714e-08
2.394808891390922e-08
2.4233096909773945e-08
2.2866306504777638e-08
1.745618892091309e-08
7.311784719549837e-09
2.459944260784806e-09
7.4251869299432674e-28
6.672614402929464e-29
5.789119322527958e-30
1.992089420317606e-30
1.865006562125001e-12
5.263268832975704e-12
1.278982025599051e-11
2.0228464233721203e-11
3.523054452305285e-11
5.304164644796072e-11
7.433899875999337e-11