# vtk DataFile Version 4.1 
COMMENT
ASCII
DATASET STRUCTURED_POINTS 
DIMENSIONS 400 400 1 
ORIGIN 0 0 0
SPACING 0.002506265664160401 0.002506265664160401 0 
POINT_DATA 160000
SCALARS U double 1
LOOKUP_TABLE default
7.23194748222897e-07
3.7093742317838954e-11
9.732440201984167e-11
1.693068179914163e-10
1.983292771081235e-10
1.6415307990481161e-10
1.3308186284520498e-10
1.3828499573667778e-10
1.7305864361079856e-10
1.4807590017489375e-10
1.2317108216383583e-10
6.290439118828304e-11
1.0404911869288646e-11
2.5651319230773458e-12
2.562751756341759e-11
4.598717324661304e-11
3.304928502109715e-11
1.8776568871592865e-11
9.525769348301763e-12
1.7893553803723846e-11
4.0600624650665116e-11
5.854768410293079e-11
5.827342702150508e-11
2.2953055459591285e-11
1.5746374923342263e-11
2.2942215220140678e-11
4.3670784325245604e-11
4.9646630141728684e-11
2.931103017747856e-11
3.253237523743522e-11
5.6662744620597194e-11
1.159030330980654e-10
1.6943709116394484e-10
1.9346630068617844e-10
1.8342109448677968e-10
2.4390344151497144e-10
2.6612819512155245e-10
1.1605652123449923e-10
3.4563734674274737e-11
2.784079719905025e-11
3.616082394500577e-11
2.841116770547338e-11
8.515564155868973e-12
9.013260665290752e-12
9.536232058350296e-11
2.8997873817654955e-10
3.356014348247122e-10
2.5436476187983504e-10
2.068207757179034e-10
1.6589704109834752e-10
6.365785354652275e-11
4.6245966719812226e-11
7.516504543357328e-11
1.3570114579030316e-10
1.9217367026155684e-10
2.780019040802502e-10
2.765899199079772e-10
1.3484282543960037e-10
3.6888578971464616e-11
7.023198991846862e-12
6.354793935135951e-13
1.4141636677292964e-11
2.9647584680670825e-12
1.1209674671196402e-10
4.50965545585768e-10
9.503089835117579e-10
1.5164310559698072e-09
1.4031220206705652e-09
7.710677860835284e-10
1.3312174755048364e-10
5.706740232103098e-11
5.942785959447624e-10
1.08138944328889e-09
1.020092138059155e-09
5.907978702710006e-10
5.744317722528094e-10
9.373948384381391e-10
9.964534029848073e-10
7.399983684388917e-10
5.607580641271938e-10
1.259908807157609e-09
2.6125653673127607e-09
3.0149426922308777e-09
2.0249228883529654e-09
6.167481329268495e-10
4.1095859305222333e-10
1.739717947006921e-09
3.0317726919089905e-09
2.8039850151912497e-09
1.7444146543128914e-09
1.742036230870059e-09
2.962598241070379e-09
3.8730065481224735e-09
3.201640603397976e-09
2.0219889649839695e-09
2.533009044409634e-09
4.766099714595343e-09
5.927109982099741e-09
4.284666657876521e-09
1.7291523225310142e-09
1.6873363234489892e-09
4.437378814886801e-09
6.568749005901056e-09
5.766945351030336e-09
2.922258698440761e-09
2.4940472022218936e-09
5.1546214242995726e-09
7.357503130177191e-09
5.866667201380833e-09
2.554550234841322e-09
1.8902776842306113e-09
5.276575001913651e-09
8.801644932047863e-09
7.544954435095073e-09
2.7511862096315053e-09
5.440876443883691e-10
3.668615203896431e-09
8.233856605717345e-09
7.95792907189732e-09
3.5687665600178674e-09
1.0970147803063245e-27
1.0023043149121344e-28
8.691774725333169e-30
7.119250777580433e-31
4.980349714848811e-13
7.820150926072643e-13
9.227876331645511e-13
8.661744058592923e-13
7.340296938410342e-13
7.266368706493498e-13
1.0832606591249896e-12
1.9198455393971613e-12
3.276014120653483e-12
4.943095877897559e-12
6.5555252532440995e-12
8.23966121817555e-12
9.164281125670649e-12
1.0169926778424632e-11
1.0383282723483467e-11
1.1126042054398839e-11
1.1381367890104973e-11
1.309064215645637e-11
1.4003831728897615e-11
1.7170986278319917e-11
1.8387181434737403e-11
2.1398440983580035e-11
2.2708292692561134e-11
2.3527110349880717e-11
2.3853301639436385e-11
2.279801690742407e-11
2.205881716233654e-11
1.931350653194355e-11
1.9506527759631073e-11
1.6012338697377115e-11
1.5840367871846746e-11
1.5099016080198998e-11
1.2917339059935778e-11
1.409904348409126e-11
1.3640828484112007e-11
1.4749849829756557e-11
1.6192151143845735e-11
1.9715908052865792e-11
2.4344808474176116e-11
2.6803151357592215e-11
3.589178310220282e-11
4.1499124019527185e-11
4.597460337429368e-11
5.6120627609307665e-11
6.106257918369839e-11
6.720979260055581e-11
7.062644607232792e-11
7.479964227677979e-11
7.662270997973489e-11
7.643822247783438e-11
7.495271151400254e-11
5.815944986099361e-11
5.608098219353274e-11
6.101827975227381e-11
3.6680610800299834e-11
1.210195962501189e-11
1.6930580295988968e-11
2.50872855612753e-11
1.6741020527067314e-11
1.2046403825803993e-11
6.907365029097666e-12
1.8540932216160644e-12
3.7890852392506944e-11
8.806641243426127e-11
6.674405751212154e-11
2.3030522877451746e-11
5.4643243982372616e-11
8.587980898749068e-11
5.6630837846981405e-11
5.1145088411043767e-11
8.403614092095943e-11
6.672013581167768e-11
1.0810845599627658e-11
2.3055207847375692e-11
7.479407338616045e-11
6.796522489116979e-11
2.7755179621851248e-11
7.393718496992655e-12
7.66578502258754e-12
1.3990377992043885e-11
1.8860924577656127e-11
2.30045776179962e-11
2.971038556016283e-11
4.8244863635954526e-11
5.74515639877406e-11
3.7349047945169576e-11
1.5657189895905596e-11
6.002427631478228e-12
5.163094774844018e-12
1.3255051611411764e-11
1.9735860870633233e-11
1.935081679268721e-11
9.844627120785959e-12
5.904994218362054e-13
1.660965835276371e-12
3.832895981143476e-12
8.681930867366551e-12
1.3524189564590746e-11
1.0549096017300268e-11
1.2560390256332133e-11
1.5843700821938188e-11
9.584662477379267e-12
3.2022124039329055e-12
2.1573265200906003e-12
6.302479071622231e-12
9.638576021213307e-12
9.779083776538426e-12
1.4760276715212398e-11
1.8836689211863296e-11
2.362480115596808e-11
3.571709870976521e-11
3.444537272486098e-11
1.985019844914877e-11
1.5282545708261373e-11
1.4987090006913506e-11
1.1160891060561808e-11
8.434773193781992e-12
4.4034175149451746e-12
2.0561239857508476e-12
4.084064163084506e-12
8.44857691920369e-12
1.5211231479282672e-11
1.6524494607901415e-11
1.2027716870553409e-11
1.1567137781629528e-11
1.0793922569452561e-11
6.939977997603311e-12
4.954654696397672e-12
2.0898839534014917e-12
8.544350647711269e-13
3.131277189011945e-12
3.810668882265025e-12
8.141921738833596e-12
1.2646994269905334e-11
6.127473296722782e-12
5.206806143174553e-12
1.619338190833751e-11
1.8192959511161267e-11
1.1314443351759514e-11
1.2857430025077099e-11
2.141413791018793e-11
3.655942829117423e-11
5.723941078070386e-11
5.986707134244418e-11
4.023407866921428e-11
3.4591441450477674e-11
5.717813277876881e-11
7.760931990343866e-11
5.530786039554504e-11
2.4802108843977843e-11
2.5489051709151812e-11
3.417964801336576e-11
1.9798326365035643e-11
3.757641262801074e-12
1.5069133602886789e-12
1.5681477109437221e-12
5.2430086449398845e-12
7.56306791051562e-12
2.2138916383069515e-11
9.477452202050131e-11
1.8655288910249628e-10
2.2809510417051763e-10
2.34805927197886e-10
2.6766144920060586e-10
3.3811253191232767e-10
4.3073057980241413e-10
5.249568052792959e-10
6.00977597436983e-10
6.653873670138025e-10
6.960579035444044e-10
6.418798069735962e-10
5.481633106679108e-10
4.889446750774665e-10
4.2256548132674584e-10
3.11272652530175e-10
2.3149576543022463e-10
1.9426595306569996e-10
1.2814423764062956e-10
7.430365078396719e-11
9.834509456771656e-11
1.5540171589627135e-10
2.1636031569552334e-10
3.394333304900143e-10
5.131482613871898e-10
7.148175313662888e-10
9.594034620585406e-10
1.2120184099859618e-09
1.4365193999441431e-09
1.7078476374753195e-09
2.0289002531702205e-09
2.2500629471628086e-09
2.34072306816006e-09
2.4223609225685454e-09
2.479911437971462e-09
2.38762084875055e-09
2.1682688241999356e-09
1.9372298853644994e-09
1.6994810968701098e-09
1.4271103067486313e-09
1.1699217092368808e-09
9.4509207045437e-10
7.247489501340708e-10
5.712028853123932e-10
5.492337128653221e-10
5.709388381418822e-10
5.731834407881941e-10
6.225490593206277e-10
7.439981818328333e-10
9.219456901159465e-10
1.1915556929126005e-09
1.5100840152570842e-09
1.7806761251841005e-09
2.1104539754102604e-09
2.604393268745319e-09
3.0329560137881928e-09
3.1918241431169345e-09
3.2419633363382483e-09
3.292107841521584e-09
3.208467095413516e-09
2.9550101105000803e-09
2.712160293169909e-09
2.6131474028248295e-09
2.466166174603951e-09
1.924654606330742e-09
1.1580865441180835e-09
6.610059988904335e-10
5.134806516452996e-10
4.5398994184355945e-10
4.876849100793267e-10
5.935379828282588e-10
6.312475339921439e-10
7.398733365715968e-10
1.317935790959693e-09
2.3653697658851128e-09
3.1867230102888816e-09
3.5855737281610455e-09
3.9212821684254306e-09
3.91712746428228e-09
3.2673418038011234e-09
2.762183810539288e-09
2.953477520189934e-09
3.0124920364030793e-09
2.1622193482247383e-09
1.0490962103239836e-09
5.08626056798202e-10
5.823883201533053e-10
7.660885844235453e-10
8.73916149069079e-10
9.853550502028022e-10
9.207660394457859e-10
6.534082221887215e-10
3.548788540714326e-10
2.9632964580357223e-10
6.35492960079528e-10
1.1469841330114481e-09
1.4299829613115826e-09
1.2223445082166358e-09
7.385205812428118e-10
4.619588805982824e-10
5.728088971594204e-10
8.846175484624619e-10
1.1085907041844549e-09
1.1664034190232984e-09
8.953644649527374e-10
2.540767850089927e-10
4.620785569856339e-11
7.518367901971961e-10
2.052866555497337e-09
3.0522617428210075e-09
2.5557842310524273e-09
1.0141575551621025e-09
1.1172573884933349e-10
2.2779898096623821e-10
4.656737799393001e-10
2.328923692071545e-10
4.08826625312797e-31
5.3853457171100893e-11
2.341688108914025e-10
6.143984960164805e-10
1.0688157561764943e-09
1.2520314231822819e-09
1.036280761215752e-09
8.401315053802836e-10
8.729783244384992e-10
1.0925006283156994e-09
9.347872524836418e-10
7.775658114884168e-10
3.9710866480365486e-10
6.568509100494313e-11
1.6193402301113337e-11
1.617837656417313e-10
2.903120850720265e-10
2.0863658640555934e-10
1.1853446243321996e-10
6.013515870154856e-11
1.1296008315732153e-10
2.5630738237274487e-10
3.6960524094209293e-10
3.678738854459092e-10
1.4490017365306486e-10
9.940517352103274e-11
1.4483174038579903e-10
2.7568897062240225e-10
3.1341384337656584e-10
1.8503738511606838e-10
2.0537339046428502e-10
3.5770582045768285e-10
7.316833984213119e-10
1.069638156721596e-09
1.2213319753788669e-09
1.1579176676307672e-09
1.5397362278115118e-09
1.6800387100958247e-09
7.326523525399518e-10
2.1819714439404094e-10
1.757559622458202e-10
2.2827939741154367e-10
1.793566499874935e-10
5.3757841831189496e-11
5.6899746435946815e-11
6.020120866625081e-10
1.8306046265365865e-09
2.1186158099922274e-09
1.6057774195899973e-09
1.30563734180597e-09
1.0472902009059248e-09
4.0186519173934685e-10
2.9194582047047314e-10
4.745088580968911e-10
8.566667572668748e-10
1.2131717383539252e-09
1.7549961593578724e-09
1.7460824549441855e-09
8.512482730879056e-10
2.328736367230125e-10
4.4336700850578677e-11
4.011713152315273e-12
8.927463334394737e-11
1.8716201754429278e-11
7.076547213116193e-10
2.846897049587424e-09
5.999198537089807e-09
9.573066371479863e-09
8.857758602532673e-09
4.867668110613149e-09
8.403832932405603e-10
3.6026038105490415e-10
3.751616942776688e-09
6.826695399878646e-09
6.439732096108907e-09
3.7296434954744475e-09
3.626326076622133e-09
5.917672926390937e-09
6.290503300698992e-09
4.671530214291103e-09
3.5400054259631764e-09
7.953668968628638e-09
1.649284453958894e-08
1.9033009371122402e-08
1.2783120690531148e-08
3.893464716217583e-09
2.5943374555217817e-09
1.0982652530616294e-08
1.913925535132459e-08
1.770125621563059e-08
1.101230233935007e-08
1.0997287607629775e-08
1.870256447343618e-08
2.4449874325899298e-08
2.0211613230482342e-08
1.276459914744506e-08
1.5990614018508342e-08
3.008787555576209e-08
3.74172086665781e-08
2.7048640381007487e-08
1.0915952878188438e-08
1.0651972967577888e-08
2.801269582489729e-08
4.146780690327357e-08
3.640610655444782e-08
1.844790527381863e-08
1.574465209379701e-08
3.254057137672757e-08
4.644712696714875e-08
3.7035639884257904e-08
1.6126601239893324e-08
1.1933119979591863e-08
3.331045121276955e-08
5.5563839042327823e-08
4.763048692033287e-08
1.736794302742563e-08
3.4347668567767028e-09
2.3159573724148203e-08
5.197945232621868e-08
5.0237551443498665e-08
2.2529239960414755e-08
6.925336474100764e-27
6.327439479230472e-28
5.487024022885897e-29
4.494306545667583e-30
3.1440412794063587e-12
4.936777280811219e-12
5.825459208506837e-12
5.468065985542066e-12
4.633850612669839e-12
4.587180513948241e-12
6.838508184458481e-12
1.2119778673277516e-11
2.0681125256211747e-11
3.120523332294773e-11
4.138432677315703e-11
5.2016096221174745e-11
5.785312238071973e-11
6.420165536684166e-11
6.554854853073287e-11
7.023750840457396e-11
7.184935297999722e-11
8.263981782469127e-11
8.840468550681123e-11
1.0839859198280585e-10
1.1607630136973941e-10
1.3508605945227036e-10
1.4335501259557893e-10
1.4852412051433433e-10
1.505833310880178e-10
1.4392143192643514e-10
1.3925494333557836e-10
1.2192409220877014e-10
1.2314261448611525e-10
1.0108417425846921e-10
9.999854090884915e-11
9.531846667921623e-11
8.154577399141354e-11
8.900574709034028e-11
8.611308501385457e-11
9.311421764527083e-11
1.0221931091877817e-10
1.2446440978707867e-10
1.5368616094136077e-10
1.692054155056553e-10
2.2658097146949224e-10
2.619795123775926e-10
2.9023273281824576e-10
3.542834939959871e-10
3.8548150345380947e-10
4.242882014619776e-10
4.458571678352647e-10
4.722021072172113e-10
4.837109378042565e-10
4.825462880211692e-10
4.731684168701275e-10
3.671543598742629e-10
3.540332167446446e-10
3.852018459015741e-10
2.3156075599699599e-10
7.639837120133143e-11
1.0688093483914943e-10
1.5837333904030687e-10
1.0568426437918656e-10
7.604765340836348e-11
4.360545348585071e-11
1.1704691353798612e-11
2.392008811725613e-10
5.55953802193885e-10
4.2134806587483284e-10
1.4538921714098726e-10
3.4495692984979045e-10
5.421500095047049e-10
3.575043964230583e-10
3.228734494764105e-10
5.305111310351566e-10
4.2119705074943933e-10
6.824770704189348e-11
1.4554505070462318e-10
4.721669514089046e-10
4.2905716436915143e-10
1.7521546767742904e-10
4.667575068784287e-11
4.839327744036121e-11
8.831975351116383e-11
1.19066990944673e-10
1.452254275049102e-10
1.8755847275087627e-10
3.045646419939738e-10
3.6268555239277113e-10
2.357805278935219e-10
9.884215802248278e-11
3.7892680896987535e-11
3.2594062728564146e-11
8.367771705406327e-11
1.245903697824466e-10
1.2215962787722687e-10
6.214807356967707e-11
3.7277594225629154e-12
1.0485498908285201e-11
2.4196660624969076e-11
5.480809701087693e-11
8.537675604348762e-11
6.659531004404597e-11
7.929239453531117e-11
1.0001958146477329e-10
6.050694469950977e-11
2.021522294584036e-11
1.3618970595780381e-11
3.978687340910253e-11
6.084729511070264e-11
6.173430547766904e-11
9.318004145316737e-11
1.1891399568362333e-10
1.491408320798724e-10
2.2547820766345987e-10
2.1744993812103892e-10
1.2531217063423908e-10
9.647706950765177e-11
9.46118894009133e-11
7.045750643723413e-11
5.324781716555788e-11
2.779830178626095e-11
1.2980089866991279e-11
2.57822583787606e-11
5.333495860144143e-11
9.60268704402056e-11
1.0431735950925483e-10
7.5929684667094e-11
7.302209835103548e-11
6.814087377015652e-11
4.3811335652960404e-11
3.1278202902568144e-11
1.3193212916500404e-11
5.393956786213794e-12
1.9767416553429565e-11
2.405634333723537e-11
5.1399077386608626e-11
7.983911637057624e-11
3.868208075010938e-11
3.287000790165269e-11
1.0222708060281424e-10
1.1485019922822018e-10
7.142686555800755e-11
8.116757468937755e-11
1.3518515246388738e-10
2.3079574383349877e-10
3.613462519848235e-10
3.7793439086540904e-10
2.5399341696375767e-10
2.1837205429613392e-10
3.6095941054067955e-10
4.899393002775747e-10
3.4915258187750854e-10
1.5657304905577912e-10
1.609096455768252e-10
2.157724465597367e-10
1.2498470773898437e-10
2.372158567143081e-11
9.512982180971956e-12
9.899548059273827e-12
3.309855040666718e-11
4.77448353450347e-11
1.3976060111234433e-10
5.983013774716595e-10
1.1776883506434053e-09
1.43993989218159e-09
1.4823045971217473e-09
1.6897179784050152e-09
2.1344680961811306e-09
2.719155884101474e-09
3.3139959243876037e-09
3.793907019635248e-09
4.200518976508078e-09
4.394138779202358e-09
4.052118274998756e-09
3.460496100218701e-09
3.086655214605047e-09
2.6676104944647172e-09
1.9650308206015027e-09
1.461407901437886e-09
1.2263800949574889e-09
8.089608078303957e-10
4.690709661991665e-10
6.20842018435264e-10
9.81034340242688e-10
1.3658594330112557e-09
2.142806155730737e-09
3.2394498551913557e-09
4.512566294608463e-09
6.056611003287733e-09
7.651342035349423e-09
9.068592670564187e-09
1.0781458689838276e-08
1.2808229367400623e-08
1.4204405698761962e-08
1.4776733304515222e-08
1.529210431040499e-08
1.565541453245307e-08
1.5072793955937805e-08
1.3688048186273673e-08
1.2229524182059437e-08
1.0728641617675291e-08
9.009194075882635e-09
7.385590085265845e-09
5.966264725324344e-09
4.5752622745230486e-09
3.6059424601926738e-09
3.467253434315531e-09
3.6042755587674136e-09
3.618445494173413e-09
3.9300853414448806e-09
4.696780606613918e-09
5.820144112476873e-09
7.522163100433175e-09
9.532998185217003e-09
1.1241217109995923e-08
1.3323069255947903e-08
1.644125495912472e-08
1.914672553524349e-08
2.014964297114647e-08
2.0466166312336636e-08
2.0782723187372465e-08
2.0254708141320437e-08
1.8654661420212005e-08
1.712157660870588e-08
1.6496518867258275e-08
1.5568642161238013e-08
1.2150137796271482e-08
7.310875959124967e-09
4.172859870162443e-09
3.241548199187668e-09
2.8659897383024906e-09
3.0787024534872997e-09
3.746941531723896e-09
3.984997877714328e-09
4.670740901542956e-09
8.319987084501623e-09
1.493232525987045e-08
2.0117440067532463e-08
2.263534180758931e-08
2.475463313142838e-08
2.4728404930443138e-08
2.0626377851444927e-08
1.743736970066791e-08
1.8644986342204627e-08
1.9017538644114525e-08
1.36498584942364e-08
6.6228316888937785e-09
3.2109016633659734e-09
3.6765549088789306e-09
4.836234945366133e-09
5.516938778859296e-09
6.220440591696842e-09
5.812697104506315e-09
4.124895921946769e-09
2.2403120870456385e-09
1.8706972242140615e-09
4.011798796588778e-09
7.24078763035535e-09
9.027328835577251e-09
7.716529584319426e-09
4.6622011024562436e-09
2.9162967926910807e-09
3.61608104047593e-09
5.584495563757146e-09
6.998414038135269e-09
7.363379497058649e-09
5.652339693198534e-09
1.6039594525369135e-09
2.917052296869595e-10
4.746264899247381e-09
1.295952605969218e-08
1.9268600528935667e-08
1.6134391325426428e-08
6.4022677117329186e-09
7.0531258852601e-10
1.4380704982005432e-09
2.9397485532013447e-09
1.4702245110678295e-09
2.6783918968918325e-10
1.3744861006748487e-10
8.786243116511547e-10
2.1176415410674513e-09
3.599904827274028e-09
4.0694682864215055e-09
3.88695194475716e-09
2.702260261817514e-09
2.635655211079173e-09
3.3893166020729276e-09
3.2978194336375746e-09
2.6843883843528956e-09
1.6981866745507343e-09
2.916403528925774e-10
3.109432567209926e-11
4.4464212461714404e-10
9.506806503629959e-10
7.81773316501344e-10
9.270951079154057e-10
7.299794828158157e-10
5.140996231959833e-10
8.02489987592087e-10
1.5352753293508185e-09
1.47541343399512e-09
5.60169138406502e-10
3.3299870418376796e-10
4.542962082104456e-10
6.262570182641e-10
6.510959537092778e-10
2.2133601372692332e-10
1.4333381618182287e-10
5.806672762667261e-10
1.7299326814579143e-09
2.255449766714427e-09
2.127880797299699e-09
1.5062405824051338e-09
1.8307269669575932e-09
2.845765897986021e-09
1.6429421993263261e-09
2.974096363417502e-10
1.3558049822048075e-10
3.441869819912411e-10
5.808608203895878e-10
2.5041584766997017e-10
3.1783832208412984e-11
8.839846469527794e-10
3.8862416878158986e-09
4.472566826998767e-09
3.2543770220325975e-09
2.4469524116688215e-09
1.785323356157261e-09
8.478581317229864e-10
2.7038696607771016e-10
8.604449458558401e-10
1.7836155542911553e-09
2.8758916377780406e-09
4.699616510096671e-09
5.479542764115553e-09
3.0512892123015222e-09
7.062629451900205e-10
1.3754135370204165e-10
2.1485632871550055e-10
8.513762794496705e-10
2.959840353784726e-10
1.19866203958996e-09
7.079869641822313e-09
1.8780942035525256e-08
3.169355014284044e-08
3.177856001036555e-08
1.7393556798421813e-08
3.69158635643843e-09
2.48868131098833e-09
1.6311834119771273e-08
2.987173057643976e-08
2.6875635638921328e-08
1.7769559089518046e-08
1.7708127851058977e-08
2.9241861760101916e-08
3.0645014081044435e-08
2.3310046835399386e-08
1.9265593888739134e-08
3.706278282025423e-08
7.425562672011174e-08
8.349243747039628e-08
5.71936537717344e-08
1.7791817092256403e-08
1.8252952315483042e-08
6.255660378887966e-08
9.74568647814505e-08
8.30162895540674e-08
4.878204910104581e-08
5.22572991861333e-08
9.868609110769013e-08
1.287483435279117e-07
1.0275321807553366e-07
6.177203344556679e-08
7.513078069156294e-08
1.4914721354938817e-07
1.8549726605303434e-07
1.2886088400554577e-07
4.90128091281602e-08
5.889627486739998e-08
1.5794900820479685e-07
2.37796709599905e-07
1.944461637204501e-07
9.214459928892974e-08
7.196563577888828e-08
1.6473961753687097e-07
2.4657991808848116e-07
2.0157740267419006e-07
8.563400792274125e-08
5.670133534466916e-08
1.7137064585758268e-07
2.8752905070991947e-07
2.6172344713004883e-07
9.344321490567346e-08
1.9221492015033e-08
1.2485002541590559e-07
2.770950505474685e-07
2.795243977749621e-07
1.2251033253278403e-07
2.602919795458683e-26
2.3763776112484597e-27
2.0550503285562374e-28
1.8809533344125367e-29
1.3949573844862574e-11
1.8516855768279183e-11
1.8537415995228602e-11
1.4090653049917098e-11
7.713486523465568e-12
5.794007410383632e-12
1.2939429803278062e-11
2.947646052513013e-11
5.84826407013513e-11
8.935508859297922e-11
1.1908906760587755e-10
1.4569040327956897e-10
1.5327566533072996e-10
1.6436437535426717e-10
1.543429616262277e-10
1.6254485208617746e-10
1.5771057205752657e-10
1.904499978951819e-10
2.0443733456335502e-10
2.727418660348892e-10
2.851062129707885e-10
3.60012154478993e-10
3.612892160151101e-10
3.864106345586102e-10
3.8755672200591084e-10
3.406428630777664e-10
3.4733196820852694e-10
2.746466517655464e-10
2.813891000604126e-10
2.2177544288887402e-10
2.2471270843997264e-10
2.0172842975483835e-10
1.8247646555432823e-10
2.1607814440544235e-10
1.8532993874690578e-10
2.4658208935367384e-10
2.824128492660748e-10
3.3546411426466903e-10
4.575100969702708e-10
5.0367924239497e-10
7.153887775513337e-10
7.817944470110878e-10
9.012955388733846e-10
1.150865979151223e-09
1.1363880346960646e-09
1.3398056033214891e-09
1.3938648410268742e-09
1.4503113978578406e-09
1.4908925643315487e-09
1.4573044523757309e-09
1.5206457660182198e-09
1.0720254710847086e-09
1.0394993567911177e-09
1.2054675255154725e-09
6.672764418283372e-10
2.0474615841019973e-10
2.568903340626055e-10
4.3709435182676167e-10
3.695538054787085e-10
3.1422913169987385e-10
1.3584896346079777e-10
5.4503796154850866e-11
7.683346340114011e-10
1.4665043884068828e-09
9.056129775698278e-10
2.975840428982407e-10
1.2351549644234798e-09
1.6332812034916424e-09
7.008263548785024e-10
8.194699275020981e-10
1.6061264988260986e-09
1.179545659347356e-09
1.3872195618101489e-10
2.843730829932929e-10
1.068387639494785e-09
8.43277642598506e-10
2.3272715790851238e-10
3.992327658724265e-11
5.333964072660221e-11
1.1299502760227765e-10
1.536093565531209e-10
2.466688554825001e-10
3.5357696849142985e-10
6.437951569597726e-10
8.345219025483474e-10
5.274793557519757e-10
3.4996136530054235e-10
3.353941348820243e-10
1.949319558789596e-10
1.9236396015886793e-10
1.699012634504527e-10
6.299291747062846e-11
3.815931651897108e-12
4.215372617631551e-11
1.484685906751104e-10
1.1513951824303582e-10
1.4531618708570222e-10
2.1694346085266078e-10
1.5238397589697402e-10
2.702361045272591e-10
3.0627497515797154e-10
9.569713376158998e-11
5.4065112863728305e-11
1.0482693927126592e-10
2.613615168767922e-10
4.284274563946767e-10
3.9257406895425346e-10
5.638736236113731e-10
7.701487925870795e-10
8.291209535852896e-10
1.1727011817133816e-09
1.2052028235800481e-09
7.056441230863417e-10
5.580469408722356e-10
5.612200445988049e-10
3.5551495776207957e-10
2.8356152351588125e-10
1.959998741977213e-10
7.268373089625994e-11
1.3228831015662756e-10
2.2295031482072938e-10
3.5935009134146056e-10
4.4681150578687553e-10
3.1521511878488884e-10
2.630312947118027e-10
3.0480444949237145e-10
2.2500091593462296e-10
1.4425158015026633e-10
6.94099745513253e-11
7.595819917830564e-12
4.1892401795779085e-11
6.489966665211597e-11
1.1821495926709496e-10
1.7088528335586656e-10
5.5013899699216594e-11
3.592338497650465e-11
3.0787257843531866e-10
2.8058813739954547e-10
9.612474202792789e-11
1.7116691379690281e-10
3.639782519893147e-10
8.444407649941433e-10
1.3225080542741661e-09
8.955262997198771e-10
5.223234222467695e-10
8.422563511967184e-10
1.5189288238133311e-09
1.0860984364609874e-09
4.1609763039021633e-10
3.426183111568963e-10
6.698087106946396e-10
6.515425892633077e-10
1.0978919397072834e-10
1.559961572432811e-11
9.436163259936199e-11
3.754995197092397e-10
7.990297710708041e-10
9.055522584028087e-10
1.073373239094066e-09
2.512065289774474e-09
4.680314799194331e-09
5.4846241539114246e-09
5.633589738418412e-09
6.7434416386171855e-09
8.029964823182097e-09
8.809185025165259e-09
1.0754892445039873e-08
1.3135260394173485e-08
1.323332020277746e-08
1.1614124518980499e-08
1.0553282191676079e-08
9.955905505380942e-09
8.811355329965363e-09
6.8354304961118876e-09
4.637391558353303e-09
3.3690677273434833e-09
2.7509046287667256e-09
2.0830560886258183e-09
2.54024915326514e-09
5.1560525774565666e-09
7.513149768688243e-09
9.13824919296218e-09
1.2878670474153587e-08
1.836376131626074e-08
2.313751657544617e-08
2.8144508618818737e-08
3.397127393063801e-08
3.8086857824454265e-08
4.166264975939488e-08
4.755158358559061e-08
5.234747209125924e-08
5.2667949794198194e-08
5.1775633924970366e-08
5.0673738186668205e-08
4.6472005925977966e-08
4.126327125345349e-08
3.788585909769546e-08
3.3176583242590484e-08
2.620018474864193e-08
2.1177566660408504e-08
1.874153261281257e-08
1.648915015611146e-08
1.5277759501418784e-08
1.6436633127127965e-08
1.7608593287638613e-08
1.765009899201953e-08
1.8738173442385172e-08
2.2131228912538553e-08
2.740627172214277e-08
3.4335601461388375e-08
4.224372655474638e-08
4.9385649691104684e-08
5.624116728215345e-08
6.557651038878384e-08
7.588992407981819e-08
8.113119621246761e-08
8.19144305248004e-08
8.200466174091098e-08
7.749285450184647e-08
6.764374625376481e-08
6.198559404620334e-08
6.184998648897271e-08
5.5273896378404123e-08
3.8484130591442374e-08
2.146475486945314e-08
1.0749678919196465e-08
6.177650872630104e-09
5.917874021254981e-09
1.166400468850282e-08
2.0737155440717296e-08
2.685541035815512e-08
3.2345952788017444e-08
4.501401994947015e-08
6.543373349982927e-08
8.794460335421743e-08
1.0699113517051122e-07
1.1213995239902696e-07
9.718829103790674e-08
7.365763560488339e-08
6.11246996046483e-08
6.481449060612036e-08
6.417633392339344e-08
4.405996674216227e-08
2.0296837265031194e-08
8.067516245038085e-09
7.476363528622001e-09
1.2406525576010363e-08
2.1327997664755735e-08
3.0526020748695464e-08
3.0294786692563134e-08
2.1827113073953087e-08
1.252466833762438e-08
8.370830122947208e-09
1.4529252940501807e-08
2.828610291364087e-08
3.659588568070206e-08
3.086630363290895e-08
1.8955165316834024e-08
1.0813245663581366e-08
9.384282227413181e-09
1.434481703912725e-08
2.197635286686978e-08
2.9287828600605766e-08
2.7774947993142698e-08
1.13912371110367e-08
8.295991035080307e-10
1.6554890195018688e-08
5.4121136920109824e-08
8.35070910816543e-08
7.141138631914081e-08
2.8834927160371745e-08
1.7407842123980834e-09
6.2144465351299085e-09
1.3586714917181484e-08
6.377557077725358e-09
9.803582549927947e-10
1.766236426996786e-10
1.0350925663045816e-09
2.877545486230495e-09
3.717117222313449e-09
4.138266654629006e-09
3.7071081246884836e-09
2.731628552413559e-09
3.487386479714429e-09
5.3023363149091536e-09
5.744266010388412e-09
4.520727167500451e-09
2.6611005051609234e-09
5.168056405662833e-10
1.1973476546811398e-10
1.077260403230962e-09
2.1276716820024066e-09
1.936638794698928e-09
2.0521517650855914e-09
1.0906520069542637e-09
2.65721528956091e-10
5.367274096558437e-10
1.8026348192766496e-09
2.287169224991671e-09
1.0951670573239535e-09
4.618871030462777e-10
6.73767394990478e-10
1.0706981265976308e-09
1.14511422168588e-09
5.856082672276698e-10
4.357229962110624e-10
1.363624447948417e-09
2.65153509371826e-09
3.7256172156471695e-09
3.0260593068609606e-09
2.3203963818796236e-09
3.4541115734612065e-09
5.06589126374594e-09
3.444350290913966e-09
1.0224178591859348e-09
4.125424970787313e-10
6.454669567081375e-10
1.3254607705167414e-09
5.374245163051719e-10
5.058614170855414e-11
1.3667675188833413e-09
5.539516908514185e-09
7.399937315489497e-09
5.630279528166565e-09
3.3696110071306313e-09
1.7602699419941431e-09
6.094423317390595e-10
4.92291396846463e-11
4.020476385768852e-10
1.6104143152440066e-09
3.2161745146326293e-09
6.245836149498904e-09
8.47364589880986e-09
5.504112876364377e-09
1.5298322768425998e-09
8.513130990823014e-11
5.532208399707208e-10
2.1971838363645546e-09
1.2037797959049928e-09
4.903941083170196e-10
6.707150548157687e-09
2.244893213745134e-08
4.311189573804211e-08
4.637516564086085e-08
2.6994912817941322e-08
5.487782722976401e-09
2.3874062715176993e-09
2.6358482989158543e-08
5.198985816570119e-08
4.556674202061975e-08
2.4923154953978365e-08
1.966989816993268e-08
3.8928770954090676e-08
5.010023746515689e-08
4.302834628963471e-08
2.990022087445655e-08
4.824014210199123e-08
1.0009055214814516e-07
1.241791178674124e-07
9.679982406782446e-08
3.468779547808733e-08
2.830023244456791e-08
9.535827699487227e-08
1.6390757410313513e-07
1.510598548063872e-07
9.031465862626983e-08
8.518892483329743e-08
1.5714561049162333e-07
2.1477578387319062e-07
1.830790558186946e-07
1.0997436318162673e-07
1.2130323589076557e-07
2.3566508180984904e-07
2.9877453381878313e-07
2.1749344443354298e-07
9.226573527169895e-08
1.0644806735143372e-07
2.6771177068788183e-07
3.992118335520163e-07
3.2728968594246893e-07
1.5568739468736928e-07
1.218682896044903e-07
2.8253968860817036e-07
4.2564358487427276e-07
3.502396262090755e-07
1.550186269674459e-07
9.872263007562004e-08
2.821354533989375e-07
4.76406859721938e-07
4.217051761095319e-07
1.5572590359954204e-07
3.776278787978842e-08
2.228927852148456e-07
4.808049025011127e-07
4.753051065373295e-07
2.120124828292041e-07
4.9531782766051916e-26
4.5188421998404e-27
3.921949774097326e-28
3.7228153244769386e-29
2.0331560571919727e-11
2.3433626370505314e-11
1.9835961212337674e-11
1.2721932450888805e-11
3.4064578809630913e-12
1.2054115359701774e-12