# vtk DataFile Version 4.1 
COMMENT
ASCII
DATASET STRUCTURED_POINTS 
DIMENSIONS 400 400 1 
ORIGIN 0 0 0
SPACING 0.002506265664160401 0.002506265664160401 0 
POINT_DATA 160000
SCALARS U double 1
LOOKUP_TABLE default
1.221556169391684e-06
1.7735779249648967e-09
4.920270962055827e-09
5.562562201140903e-09
2.4315923729808035e-09
8.849440520212397e-11
1.5107100086148138e-09
5.104871357293107e-09
5.6397787564402795e-09
2.6326088255421223e-09
1.1891760448768498e-09
7.049907177433926e-09
1.8314813929988785e-08
2.7745752065090633e-08
2.790773273580285e-08
2.2283767002136314e-08
1.838743889074036e-08
2.0554732102665838e-08
2.4769148714642282e-08
2.3917501991296554e-08
1.727101696230553e-08
9.754999817249088e-09
6.5229040144395434e-09
6.349285232728204e-09
4.618436158676641e-09
1.2178022917471204e-09
2.9573286473045086e-10
5.087941555329198e-09
1.1917105692211429e-08
1.4671001343582581e-08
1.1381391452740541e-08
7.830527294596559e-09
8.531453871486121e-09
1.1723107985476493e-08
1.2009851507228373e-08
6.332293520890502e-09
1.8302862261009095e-09
6.15462192832124e-09
1.830226626779529e-08
2.8251861193544073e-08
2.7169937414324175e-08
1.7160773013932588e-08
8.735126558502025e-09
9.086474427862816e-09
1.4512876210359199e-08
1.5715384583388836e-08
9.445277603877151e-09
1.6283265964669599e-09
1.1854448492743528e-09
8.54732269485351e-09
1.6641755969778876e-08
1.7122570207312137e-08
1.063588425949621e-08
3.3231682837101735e-09
1.2493332411990314e-09
4.8638076216317644e-09
9.738493201316078e-09
1.1283042017163716e-08
9.549068833680669e-09
6.566702792419957e-09
6.994627639595744e-09
1.0948673396063475e-08
1.570257480739582e-08
1.7329721239062394e-08
1.4071554871725511e-08
8.359815173988827e-09
4.2807692534371584e-09
4.851088300850311e-09
8.797321841795502e-09
1.2381639113617886e-08
1.222977338803247e-08
8.841745089220423e-09
4.761009040604655e-09
1.898574068040525e-09
8.543923552789629e-10
7.867790670226171e-10
1.6894644240995825e-09
4.324054624228532e-09
8.553764784724796e-09
1.351872139317008e-08
1.5581774616746848e-08
1.4375104932438899e-08
1.0208381134076182e-08
5.296262378813576e-09
1.730737649054419e-09
4.5817404909944984e-10
8.039309323190569e-10
1.6514184577284928e-09
2.7730274139668453e-09
3.75593103700646e-09
4.8548669897397916e-09
5.142233960089856e-09
4.836185490426318e-09
4.101044533240964e-09
3.9026091200396685e-09
4.1438473362362174e-09
4.364873445241098e-09
3.9601312399945135e-09
2.8280674621969826e-09
1.5792899420169796e-09
6.489905615146214e-10
1.7258058805628945e-10
4.1012151039696886e-11
4.924662084432555e-11
8.108402551071807e-11
1.7664105579785199e-10
6.045223474296022e-10
1.3275923940570013e-09
1.8800329550913826e-09
1.8524414061873435e-09
1.4044030441356124e-09
8.061736933469241e-10
7.223080091038393e-10
1.079462336384232e-09
1.4196796121937514e-09
1.878462459671149e-09
2.0458371351825606e-09
1.962987798204867e-09
1.3323361800258247e-09
5.12777159827074e-10
1.6345035485356282e-28
1.6333424515463194e-29
3.954302119018999e-31
6.605550045343106e-30
2.2784298949927376e-11
6.219127257209585e-11
8.62422724752122e-11
6.685969216451999e-11
1.8541983332587513e-11
1.946571405317073e-12
3.3576906762065025e-11
7.895967805855955e-11
9.934152469861056e-11
8.213518736496554e-11
5.200763230321486e-11
3.43374521188383e-11
5.269831707650464e-11
8.923273180162035e-11
9.065197086063003e-11
5.452552088907213e-11
1.5389463703598974e-11
9.194369689029002e-13
2.7424945191367112e-11
5.478626213349926e-11
5.4619787069358985e-11
4.18530167678234e-11
3.533289826723881e-11
5.114988998768114e-11
7.53082403936555e-11
1.010805738059397e-10
7.328515482749969e-11
1.0492635738005345e-11
1.0969925663380192e-11
5.669786776410661e-11
9.287093574305567e-11
8.280148478903863e-11
5.798341623660691e-11
2.91243180859149e-11
1.1442055989585469e-11
6.352319395107341e-12
8.959939517583557e-12
3.18151937833008e-11
7.169986194148098e-11
7.197289674412532e-11
3.863596088197259e-11
4.873000328507804e-12
3.133769874334849e-11
1.0452775980415915e-10
2.2470840673203268e-10
2.3234114063696227e-10
1.8514246505654114e-10
1.0664972674092117e-10
4.4030617083009555e-11
6.350736238346284e-11
8.687012627018389e-11
7.581760917401066e-11
2.777244603984648e-11
7.64667777164067e-12
8.977059854895673e-11
1.8376758083108597e-10
1.638336049464101e-10
7.390084453539116e-11
1.8548485440268084e-11
8.553787486572972e-11
1.5434678763957034e-10
1.9423835679797152e-10
3.2181224811175236e-10
5.18745486595322e-10
7.185683088632817e-10
5.911426099755598e-10
1.9963523384641753e-10
1.4592189324326143e-11
2.4270781005832755e-10
5.175236141666168e-10
4.5348766522970645e-10
2.041278815470616e-10
2.2401774433329796e-10
7.543816655682552e-10
8.998522017713351e-10
4.285237141472388e-10
1.3978675655736167e-10
8.369027080131928e-10
2.3744994876207337e-09
3.417723705591098e-09
2.6390153089258173e-09
8.761089741928507e-10
1.1994225657083086e-10
7.328948739914772e-10
1.506551983483691e-09
1.2477851838161646e-09
2.989343989995192e-10
1.7299212354872704e-10
1.189687700223246e-09
1.950991769244994e-09
1.4683145811119566e-09
5.643736224224364e-10
1.023813178224243e-09
2.944990062473358e-09
4.546221158256823e-09
4.145463320822865e-09
2.063005037036623e-09
2.8786786302061585e-10
2.419927073071072e-10
1.1915389103889479e-09
1.574920860763204e-09
1.0385206489413137e-09
7.736574833443294e-10
1.2920013751670027e-09
1.9062883518864097e-09
1.5629787426232839e-09
1.0270811956371795e-09
1.8263504005902688e-09
4.513066854951446e-09
7.098510871472998e-09
6.796830515576723e-09
3.826244175057201e-09
8.084456169435984e-10
2.0311331540777723e-10
1.8621111168470035e-09
3.169865107608845e-09
2.5782433867586593e-09
1.296130965060117e-09
1.0407306362372562e-09
2.1311424553089913e-09
3.0742623962888774e-09
3.6135193523722104e-09
4.867209933129606e-09
7.638703383501068e-09
9.979331863122074e-09
9.609085470388133e-09
6.024296879120486e-09
2.5534509791713693e-09
1.6047451334556112e-09
2.7892703322702127e-09
3.563296304057615e-09
3.057006126951901e-09
2.0511592442172258e-09
1.332429854353741e-09
9.40058263020863e-10
1.1769112304960577e-09
3.370563136291896e-09
7.505176707378557e-09
1.1020983026781295e-08
1.1086140708644985e-08
7.667661762086757e-09
4.144591032351301e-09
3.5788806204693897e-09
5.496970846409811e-09
6.842916860912966e-09
6.792308599445662e-09
5.612876402107665e-09
4.098992688006787e-09
2.24137888024774e-09
5.622300293734589e-10
5.196178132134318e-10
3.0477577929300116e-09
6.1599780501064654e-09
6.837503828865905e-09
4.406666409948873e-09
1.89873868279741e-09
1.9516655758559065e-09
3.97062324428118e-09
5.732110186529665e-09
5.735096697557304e-09
4.81062242535791e-09
4.305987238730829e-09
3.7040046832365363e-09
2.1916643542077375e-09
3.7387214362312454e-10
2.1707398947833609e-10
2.213680513795686e-09
4.387208101852471e-09
4.0823182246365326e-09
1.7884282454125532e-09
4.1290663312317836e-11
1.0479325673676714e-09
3.7662306983862884e-09
5.4659597034525314e-09
4.5635202960615595e-09
2.6846465068243645e-09
1.4414290684113647e-09
1.2475945365145934e-09
8.606375576477715e-10
1.8937143676396867e-10
4.8957391660088705e-11
6.885195657354767e-10
1.1269742852045912e-09
8.585448249659396e-10
4.356369306628725e-10
6.847012192382822e-10
1.5969367952099072e-09
2.3844860414497027e-09
2.101821185623027e-09
1.4758232510682946e-09
1.0167377783295565e-09
7.084463985721664e-10
3.984888056555775e-10
7.988670111110036e-11
2.8459702607499055e-10
9.427460876869466e-10
1.4164730157435335e-09
1.2160497862033345e-09
6.654643015946948e-10
5.277674806881361e-10
8.453313458898314e-10
1.1158661027007749e-09
9.678005978090443e-10
5.884072174080294e-10
4.304871106163687e-10
4.513249435858978e-10
5.438942511424916e-10
5.976707085002361e-10
1.0038281111726186e-09
1.7370120724074487e-09
2.3768641625079334e-09
2.4532097296953302e-09
1.704804186924314e-09
6.121712138171165e-10
1.0210074678423878e-11
3.1042688361270713e-10
1.1540430324592277e-09
1.6467379508716989e-09
1.3536316819089977e-09
6.661103065685875e-10
1.0962295874431872e-10
2.6718531438337976e-10
8.087737472149164e-10
1.392101358905494e-09
1.659943424450562e-09
1.5266920157854756e-09
1.192340601692934e-09
6.15544197382953e-10
8.662486686937839e-11
1.2277963639681732e-10
1.0571223973260765e-09
2.4682836107650997e-09
3.51946050964961e-09
3.3368106557700372e-09
2.1755312662373377e-09
1.0657946706403609e-09
4.652716982611854e-10
5.985104104131536e-10
1.1753851110755411e-09
1.864659729963634e-09
2.2697385402864334e-09
2.1774657958015933e-09
1.8637058915008415e-09
1.343301569504023e-09
7.281622833673912e-10
5.066064834496308e-10
9.049990749990073e-10
1.6835123889057414e-09
2.428255391151386e-09
2.8180559424369152e-09
2.270119233707849e-09
1.0714616485185367e-09
2.990037463843205e-10
5.477751967483744e-10
1.900232795554142e-09
3.4509978903407112e-09
4.31496668667853e-09
3.569575580876711e-09
1.7063614042197131e-09
3.0843424884424334e-10
1.957136428958579e-10
1.336148409504825e-09
3.0220360860850073e-09
4.284966815637045e-09
4.255483468201168e-09
2.9851469705752633e-09
1.1657621900126386e-09
8.909757479839486e-11
4.784639248953487e-10
2.319057535943751e-09
4.444251627734231e-09
5.374623971489467e-09
4.5794339311787734e-09
2.540315154012304e-09
6.812409696374805e-10
6.905535301377864e-31
1.883589405650452e-09
1.1196406934453165e-08
3.1061142080938314e-08
3.511585768266356e-08
1.5350381465277058e-08
5.586556745652883e-10
9.53695001404434e-09
3.2226504547534414e-08
3.560331750218383e-08
1.6619376738456987e-08
7.507140637989323e-09
4.450530675737557e-08
1.1561945308549354e-07
1.7515595252424422e-07
1.761785190995727e-07
1.406750275116307e-07
1.1607792666183189e-07
1.2975981591261056e-07
1.5636497529963984e-07
1.509886210133396e-07
1.0903007494618156e-07
6.158226602961285e-08
4.1178392396538645e-08
4.008235567656052e-08
2.9155691388276522e-08
7.687855059641816e-09
1.8669298094016672e-09
3.211962852622208e-08
7.52314081793323e-08
9.261645562143026e-08
7.18495017283846e-08
4.943327770804375e-08
5.385815189911383e-08
7.40067214946477e-08
7.58169025474006e-08
3.9975088824864865e-08
1.1554400348299293e-08
3.885346714526645e-08
1.155402410418518e-07
1.7835096508932122e-07
1.7152089648410494e-07
1.0833411674176905e-07
5.5143915695090665e-08
5.7361937054932725e-08
9.161822864013275e-08
9.92095348336813e-08
5.962702296487954e-08
1.02794508995696e-08
7.483586000930775e-09
5.395833007650953e-08
1.0505761789135793e-07
1.0809294652706346e-07
6.71431948948178e-08
2.0978804422604566e-08
7.88690655668853e-09
3.0704695077754694e-08
6.147806153625779e-08
7.122863230562515e-08
6.02822458500711e-08
4.1454889377357913e-08
4.4156332972760465e-08
6.911779911625492e-08
9.912866809377765e-08
1.0940066873972785e-07
8.883221443311777e-08
5.277461523809158e-08
2.7024036485414825e-08
3.0624399371885536e-08
5.553654783792201e-08
7.816395777160544e-08
7.720524575838283e-08
5.581698702726814e-08
3.0055738677664935e-08
1.1985494159441922e-08
5.3936871657773325e-09
4.966851739581149e-09
1.0665407438398788e-08
2.729729238179644e-08
5.3998998297900844e-08
8.534223606466327e-08
9.836606946575729e-08
9.074849336108894e-08
6.444441358356084e-08
3.3434735508452715e-08
1.0925960874245548e-08
2.8924035579801773e-09
5.075129622859192e-09
1.0425227339340735e-08
1.7505824204358896e-08
2.3710789199690415e-08
3.064825382896341e-08
3.2462370645749975e-08
3.053031953043887e-08
2.588945363164079e-08
2.4636752182702735e-08
2.6159663129359678e-08
2.7554977214364676e-08
2.4999883147337194e-08
1.785328611680277e-08
9.969887767215543e-09
4.09700770462667e-09
1.0894827149496065e-09
2.589053042632966e-10
3.108886276483767e-10
5.118747435467488e-10
1.1151160116538674e-09
3.816284645585373e-09
8.38094818260736e-09
1.1868446104956035e-08
1.1694263620424042e-08
8.865845566068562e-09
5.089287932325766e-09
4.559852875988717e-09
6.8145297809864454e-09
8.962284899313064e-09
1.1858531736060185e-08
1.2915150084298208e-08
1.2392131119078361e-08
8.410895193882857e-09
3.2371071309035844e-09
1.0318445334492318e-27
1.0311115453916077e-28
2.496308453274386e-30
4.170012791235028e-29
1.4383483193424946e-10
3.9260682357808606e-10
5.444382025692934e-10
4.220780550147251e-10
1.1705354912308502e-10
1.2288496194116582e-11
2.1196740578269932e-10
4.984639662644333e-10
6.271323748217536e-10
5.185106154238537e-10
3.283185964190044e-10
2.167686469273257e-10
3.32678815204055e-10
5.63316651081816e-10
5.722761548161993e-10
3.4421375660681e-10
9.715203132780379e-11
5.8043068249289256e-12
1.731307331893513e-10
3.45859788075802e-10
3.448088488775197e-10
2.6421359928480017e-10
2.2305279153802656e-10
3.229037613139692e-10
4.754128324988476e-10
6.381108050393264e-10
4.626413106259945e-10
6.623888236544179e-11
6.925196239704928e-11
3.5792754908996517e-10
5.862842417726209e-10
5.227168794928247e-10
3.6604307851186127e-10
1.8385869173738799e-10
7.223247043330885e-11
4.010151001775063e-11
5.656313575787152e-11
2.0084590097915804e-10
4.5263352691809205e-10
4.5435716629961754e-10
2.4390467103199945e-10
3.07627276488442e-11
1.9783152608125513e-10
6.598725199724764e-10
1.4185600350287674e-09
1.466744664313484e-09
1.1687844951395855e-09
6.73268269316793e-10
2.779605561713436e-10
4.009151571917016e-10
5.484017761371041e-10
4.786284228962506e-10
1.7532446871958997e-10
4.8272655417506405e-11
5.667121460837105e-10
1.1601049987051326e-09
1.0342639501192215e-09
4.665280936186524e-10
1.1709459623045973e-10
5.399914161222989e-10
9.743746914714555e-10
1.2262058826835256e-09
2.031566155415303e-09
3.2747845367138866e-09
4.536244550063606e-09
3.7318198001997e-09
1.2602757877940141e-09
9.211892380932307e-11
1.5321883348524339e-09
3.2670709873168164e-09
2.862818919990423e-09
1.2886373901580837e-09
1.41419995749188e-09
4.7623304241114275e-09
5.68067029369174e-09
2.705224178267066e-09
8.824587791903975e-10
5.28327690120918e-09
1.498996021253392e-08
2.157572264442935e-08
1.665982017991676e-08
5.530781848327093e-09
7.571825823385746e-10
4.626686616854327e-09
9.510700848018748e-09
7.877133836712442e-09
1.8871407513549495e-09
1.092080694308981e-09
7.510370663232535e-09
1.2316401476787689e-08
9.269312234051395e-09
3.5628300571220112e-09
6.463222622981921e-09
1.859140593330569e-08
2.869980584747742e-08
2.6169864666476964e-08
1.3023529204641984e-08
1.8172788984132345e-09
1.527673967995523e-09
7.522057154164026e-09
9.942306226557877e-09
6.5560693058408884e-09
4.884016591252667e-09
8.156265903303442e-09
1.203419360474434e-08
9.866916917482824e-09
6.483853265881265e-09
1.1529553904610605e-08
2.8490506291923547e-08
4.481213665716128e-08
4.290766097486937e-08
2.4154668487638843e-08
5.1036303419567705e-09
1.2822325430986746e-09
1.1755307465162981e-08
2.0011017938676276e-08
1.6276173562987948e-08
8.18233556072581e-09
6.570020718258152e-09
1.3453673407330782e-08
1.9407488291115632e-08
2.2811759531502797e-08
3.0726173504787074e-08
4.8222313961736406e-08
6.299845013896467e-08
6.066112443102054e-08
3.803073910830513e-08
1.6119661756923593e-08
1.0130583656541614e-08
1.7608364002902668e-08
2.24947068221159e-08
1.929855131634406e-08
1.2948747986968773e-08
8.411486549853126e-09
5.93448683969446e-09
7.429714182207513e-09
2.1278003036115673e-08
4.737937439791534e-08
6.957428204796077e-08
6.99856154947649e-08
4.840512509523295e-08
2.616435800305135e-08
2.2593088937660636e-08
3.470178650562977e-08
4.3198599122690846e-08
4.2879114604047914e-08
3.543348582895259e-08
2.587650055307289e-08
1.4149584117111386e-08
3.5492977844542106e-09
3.280291440954536e-09
1.9240167577057907e-08
3.8887279766777875e-08
4.3164427232809364e-08
2.781881171144478e-08
1.1986533354720322e-08
1.2320655145546592e-08
2.5066118043418157e-08
3.618619590271492e-08
3.620504942604142e-08
3.0368942646475074e-08
2.718323491782687e-08
2.3382983705921678e-08
1.3835741654221937e-08
2.360214683853641e-09
1.3703647789440994e-09
1.3974727304872395e-08
2.7695973502513195e-08
2.577123645687554e-08
1.1290155412317363e-08
2.606635223244316e-10
6.615485735901305e-09
2.3775809855660692e-08
3.450601649114953e-08
2.8809013446281312e-08
1.6947885030852937e-08
9.099586880234084e-09
7.875930300775675e-09
5.433112457513851e-09
1.1954815392807862e-09
3.0906275487534955e-10
4.346550062332306e-09
7.114467610474361e-09
5.4199012608807584e-09
2.750129150076231e-09
4.322445251036698e-09
1.0081290455915832e-08
1.5053004254167542e-08
1.3268571381297501e-08
9.316713660954775e-09
6.418556383438785e-09
4.4723460176235385e-09
2.515617027107717e-09
5.043161632205222e-10
1.7966304561068782e-09
5.951454788103339e-09
8.942042000353934e-09
7.67679168038629e-09
4.201004656253456e-09
3.331739416339701e-09
5.336485986776624e-09
7.044342847494258e-09
6.109621219316637e-09
3.7145515607384126e-09
2.7176188892817965e-09
2.849165890558119e-09
3.433545985988483e-09
3.773030984981404e-09
6.337059041346934e-09
1.0965570634916735e-08
1.500488815109929e-08
1.548684951622434e-08
1.0762245713416836e-08
3.864571117499804e-09
6.44551047471187e-11
1.9596915722723554e-09
7.285349704349527e-09
1.039567980230246e-08
8.545331409851292e-09
4.205082816264117e-09
6.920379635895932e-10
1.6867121904470763e-09
5.105701793114048e-09
8.788186348575376e-09
1.0479044538562381e-08
9.637842708632665e-09
7.527118145253784e-09
3.885864400447649e-09
5.468534798839396e-10
7.750946564077086e-10
6.67350014531879e-09
1.5582009308282554e-08
2.2217976160565312e-08
2.1064927252046343e-08
1.3733895202772956e-08
6.728247275234407e-09
2.937210254756324e-09
3.778331932962501e-09
7.420079954231309e-09
1.1771396586013336e-08
1.4328615604731103e-08
1.3746107680117899e-08
1.1765375106252662e-08
8.480118519830104e-09
4.596810280587627e-09
3.1981523137454733e-09
5.713161951535417e-09
1.062783287954778e-08
1.5329315457424168e-08
1.7790084467927803e-08
1.4331018881408966e-08
6.764022297870561e-09
1.8875785339463684e-09
3.458045978733263e-09
1.1995965528066e-08
2.1785778998663805e-08
2.7239921208208605e-08
2.253434722219703e-08
1.077207625893685e-08
1.947112283014512e-09
1.2355192053541404e-09
8.43496138909966e-09
1.9077789204598703e-08
2.705053524470873e-08
2.6864410039249555e-08
1.8844912180767173e-08
7.359331487190875e-09
5.624634194381123e-10
3.0204913644772566e-09
1.4639961126799882e-08
2.805608315417162e-08
3.392942382593871e-08
2.8909474515440284e-08
1.6036736703656685e-08
4.30060106698365e-09
6.429693233168677e-10
7.665708434635042e-09
4.810919647259821e-08
1.3549185514774987e-07
1.5349402109197667e-07
7.150099012981617e-08
2.945783912466329e-09
3.308131200142955e-08
1.2721347313184884e-07
1.412910320677401e-07
6.794255917545154e-08
1.7758120308317684e-08
1.3689672844439166e-07
3.8574634958752536e-07
5.818721598141524e-07
5.514942954776926e-07
4.0809746475066153e-07
3.252505732743968e-07
4.104832560145918e-07
5.38187933399216e-07
5.252443272435435e-07
3.565863319551987e-07
1.752191793859315e-07
1.1331060673288692e-07
1.3743008695557503e-07
1.1712007725845332e-07
3.843798485023688e-08
5.565060227573208e-09
1.0842522748462549e-07
2.650824255870515e-07
3.1546359328985987e-07
2.2164930645198565e-07
1.2824015549683186e-07
1.6511882640119267e-07
2.811788703191972e-07
3.1092788175064063e-07
1.7475561163906248e-07
3.775351384557223e-08
1.1229032163317549e-07
3.884251278903172e-07
6.142886807225874e-07
5.81572791807778e-07
3.358230260051145e-07
1.419422372862218e-07
1.7563848125417153e-07
3.3032760656968944e-07
3.746002075061402e-07
2.262128393495301e-07
3.731071894303036e-08
3.080052064319979e-08
2.1043481087880295e-07
4.0056608036948606e-07
3.958669961706821e-07
2.3547885393395005e-07
6.57557644122706e-08
3.003465067927881e-08
1.2154783592415586e-07
2.2432902278063525e-07
2.3797406046434255e-07
1.7329996759010748e-07
9.357781277340331e-08
9.764989854850015e-08
1.8731743581083327e-07
3.0157368547875805e-07
3.4781069366786675e-07
2.905198794920492e-07
1.7201816530034593e-07
8.86121190248378e-08
9.479163282622717e-08
1.699062432132426e-07
2.3621879851173087e-07
2.2799471748498968e-07
1.586758777373982e-07
8.30958497019972e-08
3.5274162248251924e-08
2.4163279339829197e-08
2.0123072520728546e-08
2.56088906814779e-08
6.68708142151115e-08
1.4519135390782646e-07
2.5148512704169466e-07
3.018851388986513e-07
2.812909579086042e-07
2.0162366524930894e-07
1.0163876568406252e-07
3.226500850161517e-08
1.0175232130904503e-08
1.8064578362630267e-08
3.2732059607284494e-08
4.876442786052894e-08
6.784223294437286e-08
9.198987903522278e-08
9.969407697065987e-08
9.500549511366207e-08
8.010237627801462e-08
7.561625169142679e-08
8.375676699768486e-08
8.81510726214864e-08
8.065467289743926e-08
5.46174809454407e-08
2.820632783272747e-08
1.0748387546331356e-08
2.5225867897399378e-09
6.386233208512099e-10
7.590799369649613e-10
6.055851245634421e-10
1.6514645462234147e-09
9.816248909719193e-09
2.4960272456826184e-08
3.7526907360730913e-08
3.893671508651544e-08
2.86696367816435e-08
1.791918824184215e-08
1.724978418625743e-08
2.409497941288457e-08
2.8234402389032047e-08
3.4757722045681384e-08
3.7981964909729595e-08
3.7355729902724004e-08
2.6155155739100685e-08
1.125223604249041e-08
2.5272608671449883e-27
2.532450042288052e-28
3.311735178926347e-30
1.4724573087255873e-28
5.624240597016409e-10
1.3619508828237926e-09
1.8288857925235586e-09
1.4325978545427658e-09
3.7052075793638636e-10
4.9913346841099495e-11
7.995601247387558e-10
1.8341886824092905e-09
2.2502033108517876e-09
1.8184289379672863e-09
1.1032676445199265e-09
7.108133181058943e-10
1.081709841596246e-09
1.935610305430792e-09
2.0202822044962786e-09
1.2573757433290848e-09
3.655053420722235e-10
4.301141712491391e-11
6.482511420723443e-10
1.214407978854535e-09
1.196668117884667e-09
8.626281943322818e-10
6.465197002847793e-10
8.181836761416148e-10
1.5076326604253559e-09
2.2659765671816574e-09
1.6714890722559246e-09
2.1907869677333255e-10
2.285252185000462e-10
1.2772170398955839e-09
2.1565620523129563e-09
1.938281506385405e-09
1.288686289815061e-09
5.488200461530555e-10
1.9602371784125887e-10
1.3659220028558128e-10
1.3020810117964196e-10
4.925418665162549e-10
1.2421291130178097e-09
1.3527894444193502e-09
8.019342093163644e-10
8.78014684755774e-11
6.50628359603405e-10
2.4431611868297126e-09
4.981265434649763e-09
5.157683720803386e-09
4.12674162853701e-09
2.2216720061719987e-09
1.054795269604343e-09
1.929417129677346e-09
2.733444236440577e-09
2.2975281355587556e-09
9.315949611155606e-10
1.6051454431131083e-10
1.8010265367516055e-09
4.028629155158091e-09
3.5657401263424796e-09
1.480395618576332e-09
8.744954399143833e-10
3.0734354449048907e-09
5.1185851218805e-09
6.016458457373391e-09
8.61955098545968e-09
1.408804973537723e-08
2.0253673055480855e-08
1.741533083156376e-08
6.411963096899867e-09
3.4141960657294276e-11
4.53410768744816e-09
1.1502498390382458e-08
9.804216676294498e-09
3.839678438883734e-09
5.13938529995235e-09
1.9368786661798162e-08
2.4330464438969146e-08
1.332889226899837e-08
4.557269087180243e-09
2.0717481664194874e-08
5.910823231136766e-08
8.523630549272345e-08
6.549526278937732e-08
2.08086912864391e-08
1.1827070090406232e-09
1.5422479193386368e-08
3.400734514670017e-08
2.7592985828972312e-08
5.618179764527086e-09
4.977524696416051e-09
3.135340114582651e-08
5.345784813228516e-08
4.179725225250027e-08
1.6638328301733546e-08
2.6679193735933398e-08
7.669033521184801e-08
1.2014543153486123e-07
1.0976191410533407e-07
5.6169200194322635e-08
1.0530553030524033e-08
7.150083272804481e-09
2.748029983908749e-08
3.40801624158533e-08
1.9706910275240114e-08
1.4466116380411264e-08
3.118263940111875e-08
5.1170474573735034e-08
4.5668017387818294e-08
3.183054913995755e-08
5.030640693987522e-08
1.1835248623309428e-07
1.851417583045697e-07
1.8193804311913378e-07
1.0883308704795709e-07
2.8886207172905773e-08
8.936553807456998e-09
4.4968130001557255e-08
7.3798133851726e-08
5.691503694663392e-08
2.6080378901912543e-08
2.488397081784281e-08
5.749090365312439e-08
8.117091962910475e-08
9.084714869230537e-08
1.1866985450038444e-07
1.912603353808117e-07
2.5650283858699735e-07
2.5310975185396164e-07
1.648981253126402e-07
8.158512831600401e-08
5.848561392167759e-08
8.384662390498581e-08
9.238864957466e-08
7.115923962890117e-08
4.705909898312154e-08
3.394254592640057e-08
2.6899673933590712e-08
2.993122245298155e-08
8.007630593109677e-08
1.7964623871337224e-07
2.6786780049363057e-07
2.730228842733222e-07
1.9815937804572452e-07
1.2570236963221947e-07
1.2056618220380877e-07
1.6273788810498479e-07
1.8391825712084844e-07
1.7255560650441985e-07
1.4016484641148883e-07
1.0655966757714598e-07
6.2250655138959e-08
1.8297251875835567e-08
1.0656422615569468e-08
6.391805752521989e-08
1.3414407070992055e-07
1.5167820396217557e-07
1.0276692654419931e-07
5.377927502810922e-08
6.527035272794734e-08
1.193126961690577e-07
1.614299702460902e-07
1.5337559598820462e-07
1.246205691162753e-07
1.1261780799871885e-07
1.0345994231621932e-07
6.847243650014744e-08
1.7880105561358174e-08
1.6577042254002732e-09
3.9384092563522933e-08
8.804743425374151e-08
8.377593130703925e-08
3.507641681240772e-08
2.0532845562497041e-10
3.014579908842264e-08
9.584543688760116e-08
1.3249421097053545e-07
1.050510740058407e-07
6.16546808633031e-08
3.921434894484267e-08
4.217274763666144e-08
3.2570863256073347e-08
1.057246302028513e-08
1.7753017704680084e-10
1.2146863481790483e-08
2.4165971332609735e-08
2.0179814043184936e-08
1.013867300038861e-08
1.4427146917761688e-08
3.5587684864566714e-08
5.3098730914347295e-08
4.5360033011895365e-08
3.300122790247026e-08
2.5835738783630953e-08
2.3422630958807768e-08
1.705970450380784e-08
6.265152541324299e-09
7.302188962432704e-09
2.290623498027648e-08
3.767388126987204e-08
3.4352611579062826e-08
1.7592008797221986e-08
9.577645040880507e-09
1.3330394614793966e-08
1.828321441138915e-08
1.610751907076649e-08
9.940216691036986e-09
9.737904434243493e-09
1.2490576079821599e-08
1.5439152554189238e-08
1.5243380578060088e-08
2.3231576469201735e-08
3.9073731310575046e-08
5.475221196798364e-08
5.962822313413848e-08
4.564269556641816e-08
1.9270571243812703e-08
1.27164995626353e-09
4.8698117319436575e-09
2.286358959797078e-08
3.425819509573279e-08
2.978447789375805e-08
1.5714763571353104e-08
2.3964600928940155e-09
4.374543623044174e-09
1.4464895508679959e-08
2.6149745601683433e-08
3.207891474097213e-08
3.0405964423219234e-08
2.542829825206645e-08
1.4608544717566475e-08
2.818809471535852e-09
1.7047878176118523e-09
2.0341990419678436e-08
5.042603939823322e-08
7.285196871026223e-08
6.923918738817552e-08
4.4423352566698605e-08
2.144673306018915e-08
8.245517267292317e-09
1.0575772435238252e-08
2.1862968804441442e-08
3.474041497177319e-08
4.1539893866669417e-08
3.9836359809496535e-08
3.5218837017470515e-08
2.5404114707784344e-08
1.3933158412295346e-08
9.25776979147195e-09
1.523920247339056e-08
2.943932701635304e-08
4.45078593493079e-08
5.37144564333414e-08
4.404283753146894e-08
2.1300427201944797e-08
6.040875452045189e-09
1.022523877442073e-08
3.714400260332259e-08
6.815961769558654e-08
8.671576952134433e-08
7.194531665049816e-08
3.488331695631406e-08
6.446772472730903e-09
3.1149476666891286e-09
2.4106945728615516e-08
5.7790704594843316e-08
8.432710231965281e-08
8.363962066445125e-08
6.088782790129237e-08
2.5027695523236858e-08
2.344428738716063e-09
7.800415535180669e-09
4.3320470471834453e-08
8.517294018398646e-08
1.0409005571059176e-07
8.97596859509554e-08
4.916454846938611e-08
1.3201617427700218e-08
2.1139330695259376e-09
1.8151175519714112e-08
1.106664307123135e-07
3.161158377342793e-07
3.669073958459263e-07
1.7976945025530496e-07
1.0590963827727933e-08
6.610770611797993e-08
2.809893585904373e-07
3.394532535978049e-07
1.8079993555543599e-07
1.9827130887202632e-08
1.7737978017905973e-07
5.915317069340147e-07
9.151845818998077e-07
8.115914600370008e-07
5.055030164548764e-07
3.691859593622578e-07
5.900683839251688e-07
8.876871221241563e-07
8.79330651254649e-07
5.401373087689307e-07
2.0040865389470557e-07
1.4159312686901925e-07
2.717815104412851e-07
2.8595772049979586e-07
1.2483693336760864e-07
9.610807797489455e-09
1.6332482887747663e-07
4.4644052679341367e-07
5.377486665378246e-07
3.3073301463787206e-07
1.3532434229549724e-07
2.34811425095298e-07
5.299751363288808e-07
6.577708223170619e-07
4.018595767616302e-07
7.676577810052025e-08
1.2744894566165987e-07
5.903598680795703e-07
1.0019869642975591e-06
9.366571112980191e-07
4.768737129029691e-07
1.3412058189112247e-07
2.3938901501016186e-07
5.817739554263836e-07
6.953344089468121e-07
4.233145532708225e-07
6.93046372590641e-08
6.012650668083708e-08
3.986994938389223e-07
7.337687202129547e-07
7.001352272810579e-07
3.9517937050803523e-07
1.0201511447914459e-07
6.381074438983412e-08
2.3083945663085842e-07
3.836086404447316e-07
3.594306549182975e-07
2.1510172323214353e-07
6.528182724491286e-08
6.674535787330159e-08
2.1808131029737084e-07
4.0987992183794084e-07
5.046293045223384e-07
4.350894990887608e-07
2.6407169723395365e-07
1.2977344693391426e-07
1.2918231598386376e-07
2.2973131192561913e-07
3.18614002067214e-07
2.9454102568755666e-07
1.8444721045927937e-07
8.63213920569434e-08
4.312194114425017e-08
4.958763192315284e-08
4.421618224423416e-08
2.996621761161611e-08
6.355355404415759e-08
1.6738875580781908e-07
3.2421155451798213e-07
4.03819955100157e-07
3.8095622752581975e-07
2.6152606795000125e-07
1.2492142364213886e-07
3.6560113814714985e-08
1.9356543361129773e-08
3.5103016827383806e-08
4.4915956114426696e-08
5.521110363737878e-08
7.416883987522593e-08
1.1713803454774887e-07
1.3619840242580477e-07
1.3277281931191075e-07
1.0912670994550595e-07
1.0281126878237073e-07
1.1756151027118922e-07
1.2819835827706296e-07
1.1589992125246082e-07
7.348752891825553e-08
3.4665891354878835e-08
1.1472866922938455e-08
2.8055015519262203e-09
1.6380659536793852e-09
1.843748524769438e-09
9.400986936399819e-10
1.0445598977822179e-09
1.1680720349191805e-08
3.5145235279701694e-08
5.7260399209331556e-08
6.100835910498652e-08
4.9514158087942726e-08
3.444538541871505e-08
3.8806951664683495e-08
4.8815660687421396e-08
4.780856626302003e-08
5.0861758858158405e-08
5.220375991223546e-08
5.5485192325793255e-08
4.1982491295890624e-08
1.864996893864447e-08
4.3230050598424815e-27
4.213878491870623e-28
3.9945314393203426e-30
2.131024805864074e-28
8.9383137887615e-10
2.279749476355514e-09
2.9706978647970277e-09
2.284666183990636e-09
6.011371811621631e-10
9.59423770316241e-11
1.3692966318632323e-09