# vtk DataFile Version 4.1 
COMMENT
ASCII
DATASET STRUCTURED_POINTS 
DIMENSIONS 400 400 1 
ORIGIN 0 0 0
SPACING 0.002506265664160401 0.002506265664160401 0 
POINT_DATA 160000
SCALARS U double 1
LOOKUP_TABLE default
5.435230984744943e-07
2.6489058105223337e-07
7.634517430076083e-07
8.867377337250964e-07
4.873275439063416e-07
9.723563544703495e-08
2.348038742817152e-07
7.313479095435306e-07
9.498656879510184e-07
6.150959982168127e-07
1.8848782858497448e-07
2.4212686355329655e-07
6.666967869648242e-07
8.684005296036033e-07
5.972346074171268e-07
2.1797313682804197e-07
1.9331033669279114e-07
5.104191254006328e-07
7.432486168891761e-07
5.874560902758183e-07
2.636498905807449e-07
1.973109219897172e-07
4.40344340711323e-07
6.595045953101996e-07
5.763466526919083e-07
3.285232897673866e-07
2.4313887771181705e-07
4.219502791791775e-07
6.182519748569023e-07
5.807947482630228e-07
3.7621245894903247e-07
2.6453406536675693e-07
3.6134440070068006e-07
5.038462039310385e-07
5.055465881214984e-07
3.5606109695176887e-07
2.480221621437864e-07
2.7636914498595355e-07
3.5404509255895943e-07
3.479793746088334e-07
2.58793673485919e-07
1.8970529575449375e-07
2.0878050931988542e-07
2.587192462419803e-07
2.539219689503508e-07
1.9285532833488145e-07
1.4083673891033668e-07
1.4274640659392337e-07
1.6917384164058945e-07
1.7550522940409395e-07
1.4257879614203427e-07
1.0950830290964389e-07
1.0095624643073268e-07
1.1421312132688404e-07
1.1415743300240098e-07
9.4918318462176e-08
6.835223643620741e-08
5.7268233644251604e-08
5.786104018545276e-08
6.12588155606095e-08
5.2956854811895204e-08
3.874352805546032e-08
2.706048489693108e-08
2.42898539913865e-08
2.3673096504642676e-08
2.17501016146518e-08
1.936142316356419e-08
1.9245937852938973e-08
2.122439718496604e-08
2.206167963916837e-08
2.0513031652281676e-08
1.5133651442016123e-08
1.1301388028194108e-08
7.3961667316910246e-09
6.191043197134884e-09
4.388284998422608e-09
3.2569053255377367e-09
1.1866618931184565e-09
7.305422612634056e-10
7.647825751093365e-10
1.5156716872775696e-09
2.5168908098336735e-09
5.0280382578444335e-09
7.219368982072817e-09
8.387454583638277e-09
8.341058938487368e-09
6.064748108139363e-09
4.4291497671415556e-09
2.005277332095591e-09
1.5254197204335556e-09
1.6578271471009205e-09
1.9947010523946946e-09
2.3051331042391216e-09
1.604532104246894e-09
1.605447105302527e-09
1.0505353734202128e-09
6.654129499484141e-10
1.9609073565620746e-10
4.649396290812224e-10
8.005763067704062e-10
9.413117361074277e-10
1.0436105701551782e-09
2.728175265770854e-10
1.0040123784998207e-10
1.355587646696077e-10
6.744687883351609e-10
1.2300798340744928e-09
1.762176387473619e-09
3.176962335971925e-09
3.0410932921456125e-09
1.5886028832565099e-09
9.019854635103639e-10
2.021671463650833e-10
6.093299353126898e-11
1.4969242148557968e-10
4.832498627992855e-10
8.661571978637207e-10
8.145914664253586e-10
5.229186079053993e-10
2.6244896592774985e-10
5.588640902457435e-29
4.9949461769346076e-30
4.9554543228220355e-31
1.424927905408008e-31
8.216082751154153e-14
3.337251727103648e-13
7.910528747632391e-13
1.5029805862585993e-12
2.689782088673217e-12
3.505564986157314e-12
5.235877881901686e-12
6.4847066348331445e-12
7.799864215485416e-12
8.889724188208772e-12
1.0078343144946854e-11
1.1025488127304172e-11
1.0988997153269916e-11
1.2290891235769217e-11
1.2333826075736393e-11
1.272277953818239e-11
1.3064238032448617e-11
1.4376150642914633e-11
1.5135301948569778e-11
1.7619749738396258e-11
1.902318992025101e-11
2.5568055377529865e-11
2.9906210723464106e-11
3.6356669373515384e-11
5.271871779474292e-11
5.8038727602564056e-11
8.570014393439069e-11
1.024616830371738e-10
1.2323526405480913e-10
1.7843464823790313e-10
1.8611663333996853e-10
2.449724706056697e-10
3.034899056623842e-10
3.179201061981917e-10
4.096141522914729e-10
4.4783844221027535e-10
4.799561651248468e-10
5.684174167370374e-10
5.930754298545292e-10
6.158506428999392e-10
6.6984443629867e-10
6.942928126753101e-10
6.769689115706407e-10
6.874368024137802e-10
6.926212598721532e-10
6.327448641835106e-10
6.153927048149972e-10
5.773886967303236e-10
4.827003696673259e-10
4.520566921309782e-10
3.914021674179058e-10
2.8213805063675833e-10
2.2718236103347682e-10
1.7868966855208135e-10
1.0942781214284752e-10
5.0244261630365713e-11
1.827661540897044e-11
6.736071203964802e-12
8.150643375254377e-12
3.873882969565379e-11
6.543120165484374e-11
1.0646098483322739e-10
2.1127087267063952e-10
3.1844726501428653e-10
4.161363175338714e-10
5.127608578834988e-10
5.809503637262435e-10
7.012586739981055e-10
8.237789328558169e-10
8.175488457536638e-10
8.43416229379929e-10
9.666766560854788e-10
9.835423467378323e-10
9.358937509516714e-10
9.388940086359617e-10
8.654313542943167e-10
7.203205475357642e-10
6.391924243392902e-10
5.622304442875669e-10
4.0955546934544703e-10
2.3506294225071045e-10
1.0114327615335129e-10
4.6969054670443506e-11
5.16499464112005e-11
5.7751706605756386e-11
9.623458234571567e-11
1.7887550382898831e-10
2.1699537346807802e-10
2.0814884734907256e-10
2.2025360801377652e-10
2.549450724648522e-10
3.4122013454048464e-10
4.898361924225046e-10
6.146725372831253e-10
8.144674993029019e-10
1.2972025055769383e-09
1.8586949900413191e-09
2.149243680197931e-09
2.312768334617064e-09
2.5825763257522724e-09
2.7655704802720312e-09
2.770548089198473e-09
2.840897554119534e-09
2.920643633514418e-09
2.719542988600453e-09
2.3966102969626364e-09
2.295954547650533e-09
2.293035589652383e-09
2.095103539031119e-09
1.7593994863150942e-09
1.478496234638464e-09
1.280125308146202e-09
1.1513529394857799e-09
1.1786681635334073e-09
1.5031101452497588e-09
2.1617723270122595e-09
2.9171283840062335e-09
3.4404016794359988e-09
3.761195588981045e-09
4.2016849318449835e-09
4.8210735902692335e-09
5.3207898825948e-09
5.441387311412679e-09
5.076692593035793e-09
4.2050737652690806e-09
3.0738780894980595e-09
2.1701424434039163e-09
1.7140780729774416e-09
1.474373118618523e-09
1.2244851906729127e-09
1.0303943629574017e-09
1.0206712037512836e-09
1.20111444399682e-09
1.5220193104417028e-09
1.9329563833182416e-09
2.4598933424071136e-09
3.2935364748880493e-09
4.543501559858029e-09
5.868095644174723e-09
6.694311428313786e-09
6.8255006185340915e-09
6.46431980447237e-09
5.69375820724121e-09
4.41529835851102e-09
2.8104306407603884e-09
1.39222053071891e-09
5.076933737832478e-10
1.0988899764625826e-10
1.8636559969988396e-11
9.999812315610803e-11
2.295234322815737e-10
3.876255202633966e-10
7.635409641610836e-10
1.5009257691574999e-09
2.3889324459934182e-09
3.0436131399041955e-09
3.3220867497222793e-09
3.3242200080602674e-09
3.0884283887314845e-09
2.5749761978276005e-09
1.9039364039061822e-09
1.3199206621752693e-09
9.014625780841876e-10
5.39861317354431e-10
2.2508739257250948e-10
1.1907192437825065e-10
2.900989149459515e-10
5.870933871397389e-10
8.667741711345696e-10
1.1648769789756818e-09
1.531755023564532e-09
1.8581764108920758e-09
2.014047931720359e-09
2.0493994497324722e-09
2.089874696139717e-09
2.0922996979401637e-09
1.8800474312875185e-09
1.4226017037623584e-09
9.236816427975389e-10
5.834422516011466e-10
3.953961872175078e-10
2.515344173623743e-10
1.4685681666902618e-10
1.6609519694579135e-10
3.153672847019981e-10
4.920371483136561e-10
6.33901477020033e-10
7.95678867371892e-10
1.026216999099892e-09
1.240863119587112e-09
1.2947853842797919e-09
1.160344977793084e-09
9.58258853817074e-10
8.038430137336085e-10
6.836280498807723e-10
5.179988939176448e-10
3.0224962691798694e-10
1.2767097364388972e-10
6.768366676246266e-11
9.507825425378766e-11
1.357652678192106e-10
1.7157778592644877e-10
2.4912802713195426e-10
3.9073531736153696e-10
5.348196750800817e-10
5.876719283691031e-10
5.212187979909797e-10
3.9716329667935505e-10
2.9454683010548546e-10
2.3256044994348227e-10
1.7479151580291206e-10
9.636311968078314e-11
2.5700670821243383e-11
1.3366237586927822e-11
7.048994176955826e-11
1.5056916162462947e-10
1.9343608445757927e-10
1.8048889869931262e-10
1.43253633279847e-10
1.2230225899997764e-10
1.246340937382924e-10
1.227983024861042e-10
9.121621557407738e-11
3.836102697346747e-11
2.1736854427313107e-12
1.5198402030549788e-11
7.400441283377812e-11
1.4031088997173735e-10
1.7065959822332002e-10
1.4788242969546108e-10
8.982583133414854e-11
3.232527561690707e-11
3.2018378052982295e-12
7.0320392309421205e-12
2.8330269219329176e-11
4.63602509438995e-11
4.8963255695156115e-11
3.705205697347728e-11
1.984454019643501e-11
6.699521729902628e-12
1.6576538830614293e-12
3.0649894222153053e-12
6.655647827515002e-12
8.92463994058849e-12
8.690730135680047e-12
6.713493055613177e-12
4.424027946890648e-12
2.850267130911338e-12
2.226739425444695e-12
2.2059645301410703e-12
2.3050546787341773e-12
2.2354518942437963e-12
1.9702254723955196e-12
1.6260535885543812e-12
1.3218154386818843e-12
1.11115391180634e-12
9.859829983039125e-13
9.071519381145178e-13
8.333356475155293e-13
7.396664520874382e-13
6.236381804440653e-13
4.989380357396459e-13
3.8399935205816633e-13
2.935344085746679e-13
2.3549830407604736e-13
2.1061774996373527e-13
2.1225842423408298e-13
2.274728606681863e-13
2.4045889451491587e-13
2.375782566715784e-13
2.117561451872719e-13
1.6462015273614986e-13
1.0588124049996528e-13
5.0217978382047335e-14
1.2498817534674934e-14
3.0725709039634254e-31
2.7604566885601763e-07
1.6722257854124202e-06
4.819588848739154e-06
5.597880065584069e-06
3.0764464392231245e-06
6.138381221770617e-07
1.4822916372824713e-06
4.616920796458989e-06
5.996400059830697e-06
3.883034967254354e-06
1.189903415758063e-06
1.528520881967552e-06
4.2087852040097675e-06
5.482119265624615e-06
3.770277925686791e-06
1.376040999582413e-06
1.2203473914412193e-06
3.2222211128537107e-06
4.69204868363785e-06
3.708547197316463e-06
1.6643934397325659e-06
1.245602656704662e-06
2.7798465240736722e-06
4.16338167063113e-06
3.638414511150545e-06
2.0739322405322203e-06
1.534909618646516e-06
2.6637267893880094e-06
3.902958308789388e-06
3.6664948607063856e-06
2.374988843125117e-06
1.669975140184532e-06
2.281128388430407e-06
3.1807269656353202e-06
3.191461308385823e-06
2.2477754593605975e-06
1.565737268735863e-06
1.744688726575612e-06
2.2350486401744676e-06
2.1967564142940784e-06
1.6337366628352136e-06
1.197589155227077e-06
1.3180089295338379e-06
1.633266811638704e-06
1.602982115388011e-06
1.2174749725516834e-06
8.890872050026632e-07
9.011427319654465e-07
1.0679762907571523e-06
1.1079456616329294e-06
9.000846251862614e-07
6.913141536208522e-07
6.373259396740577e-07
7.210151669288369e-07
7.206636125180417e-07
5.992091489623019e-07
4.315003266827884e-07
3.6152820762644173e-07
3.652705316457402e-07
3.8672032262285346e-07
3.343109361571855e-07
2.4458373104408274e-07
1.70829934498458e-07
1.5333923919435194e-07
1.494457154284925e-07
1.3730605524319903e-07
1.222265847573079e-07
1.2149753839598876e-07
1.3398733964623826e-07
1.392730138443496e-07
1.294965654485182e-07
9.553711599806935e-08
7.134444870265449e-08
4.669120613052072e-08
3.908339070315846e-08
2.7702771834887467e-08
2.0560493485184706e-08
7.49126906799191e-09
4.611834825403895e-09
4.827990248848301e-09
9.568272558492063e-09
1.5888861334943002e-08
3.174146544361136e-08
4.557510092760995e-08
5.294909986236851e-08
5.265620913803995e-08
3.828610337210148e-08
2.796074673039069e-08
1.2659100404072298e-08
9.629810844737428e-09
1.0465684706970417e-08
1.2592333486353588e-08
1.455205768511766e-08
1.0129238826029158e-08
1.0135015129410085e-08
6.631916970935021e-09
4.200680478826335e-09
1.237899751445451e-09
2.9351139376918637e-09
5.05395223210195e-09
5.942399880650269e-09
6.588201431738797e-09
1.7222677410514667e-09
6.338222301190799e-10
8.557679205455496e-10
4.2578490138444225e-09
7.765361865583233e-09
1.1124430252947446e-08
2.0055821978995718e-08
1.9198095299461995e-08
1.0028679364926987e-08
5.694137345909554e-09
1.2762594795632832e-09
3.8466344314924463e-10
9.449921778821211e-10
3.0507044763914456e-09
5.467957353314388e-09
5.142428429589173e-09
3.3011290032956905e-09
1.6568121313934827e-09
3.528048972287558e-28
3.1532558691357115e-29
3.128325085829464e-30
8.995416810638201e-31
5.186724789150956e-13
2.10677116879985e-12
4.9938318287839205e-12
9.488155000952283e-12
1.698030540743497e-11
2.2130255213322423e-11
3.30535346655458e-11
4.093725644198989e-11
4.9239704983237495e-11
5.611987392558842e-11
6.362349772599638e-11
6.960272226365399e-11
6.937235866419154e-11
7.759107616627545e-11
7.786211919921559e-11
8.031754062886388e-11
8.247313142598432e-11
9.075509481899902e-11
9.554753546865621e-11
1.1123158750310552e-10
1.200913546230192e-10
1.6140838724925154e-10
1.887946959725711e-10
2.2951574856532196e-10
3.3280760274698505e-10
3.6639225322397284e-10
5.410158033229003e-10
6.468295992666129e-10
7.779709848721428e-10
1.126438768072235e-09
1.1749343148742366e-09
1.5464848936331517e-09
1.915899175595631e-09
2.0069954815827864e-09
2.585850145409976e-09
2.8271559818704174e-09
3.029911716759636e-09
3.5883580962728106e-09
3.744021484485081e-09
3.887798958080059e-09
4.2286559761549486e-09
4.3829959501399935e-09
4.273632023283528e-09
4.3397146937856124e-09
4.37244361684066e-09
3.994450362379259e-09
3.884908044138459e-09
3.644992823235676e-09
3.047235585272254e-09
2.853785340523688e-09
2.470879841112465e-09
1.7811072082919738e-09
1.4341778427981998e-09
1.1280486839230703e-09
6.908060240558453e-10
3.1718662677076345e-10
1.1537830992533377e-10
4.2524093967021237e-11
5.1454136140513284e-11
2.4455407080329043e-10
4.1306014786601243e-10
6.720767619269124e-10
1.333730325869013e-09
2.0103233785649263e-09
2.627023874017974e-09
3.2370042184848385e-09
3.6674772444105274e-09
4.426970684444679e-09
5.2004279183086066e-09
5.161098047626905e-09
5.324396061958586e-09
6.102525895942054e-09
6.208997189430942e-09
5.908196722325619e-09
5.92713702681898e-09
5.463375180825991e-09
4.547306244589257e-09
4.035153117089009e-09
3.5493004037624065e-09
2.5854796862750437e-09
1.4839271055433939e-09
6.3850663822347e-10
2.9651059703354853e-10
3.2606056380293833e-10
3.645803205009971e-10
6.075185814748462e-10
1.1292218420650044e-09
1.369868484515745e-09
1.31402131536099e-09
1.390437369225029e-09
1.6094408579801388e-09
2.154086057774846e-09
3.092283267843454e-09
3.88036170386532e-09
5.141645838460822e-09
8.189100080910807e-09
1.173374182357613e-08
1.3567944495742434e-08
1.4600258074368348e-08
1.6303526941439368e-08
1.7458749382917358e-08
1.7490172493408608e-08
1.7934281108987376e-08
1.8437709542418074e-08
1.716818277195926e-08
1.5129543376914452e-08
1.4494114443272912e-08
1.4475687374965484e-08
1.3226163599927345e-08
1.1106899974209788e-08
9.333587919119274e-09
8.081293567848627e-09
7.268367436359904e-09
7.440805511754335e-09
9.488972892947118e-09
1.3647036497338043e-08
1.8415518149857446e-08
2.17188862573963e-08
2.374402375082309e-08
2.6524785657911052e-08
3.0434919727966166e-08
3.358957500524358e-08
3.4350893619603565e-08
3.2048615035551916e-08
2.654617899931161e-08
1.9405062203624855e-08
1.3699876143056786e-08
1.0820790759931562e-08
9.307559130562868e-09
7.730043482728144e-09
6.504768935295606e-09
6.443387675623963e-09
7.582506469290897e-09
9.608344421708109e-09
1.2202546022672345e-08
1.5529042445364957e-08
2.079174199636075e-08
2.8682637314906855e-08
3.7044657490181975e-08
4.2260468988891504e-08
4.3088652255289e-08
4.080855657173896e-08
3.5944083976979406e-08
2.7873304275531568e-08
1.774194675750268e-08
8.788938667432838e-09
3.205013735675124e-09
6.937174386014221e-10
1.176506012762085e-10
6.31277410356531e-10
1.4489567741252568e-09
2.4470382732881664e-09
4.820152092297505e-09
9.475183161307725e-09
1.5081073928449044e-08
1.9214002827696773e-08
2.0971976814710117e-08
2.0985443845457537e-08
1.9496916679789877e-08
1.6255548150205697e-08
1.2019346009775653e-08
8.332517363283993e-09
5.69083642637895e-09
3.4080865081751675e-09
1.4209525319315799e-09
7.516882686920651e-10
1.8313632895732382e-09
3.706257491377533e-09
5.471852239302126e-09
7.353743244997998e-09
9.669804932907499e-09
1.1730468089109257e-08
1.2714468257424437e-08
1.293763859341185e-08
1.3193154476401171e-08
1.3208463252289958e-08
1.1868537491627306e-08
8.9807317495142e-09
5.831102995291367e-09
3.6832082649029024e-09
2.4960936590965235e-09
1.587909758667901e-09
9.270913092568774e-10
1.0485411374862652e-09
1.9908797936842854e-09
3.1061776659723677e-09
4.001751934980626e-09
5.023035223229234e-09
6.478397685967569e-09
7.833435588756162e-09
8.173841053792885e-09
7.325133208329442e-09
6.049385214405498e-09
5.074574602272881e-09
4.315670448155396e-09
3.2700713773336896e-09
1.9080694291046785e-09
8.059731430538222e-10
4.272797181457099e-10
6.00218806435516e-10
8.570715527478086e-10
1.0831521328182038e-09
1.5727184756215636e-09
2.4666700883351707e-09
3.3762591620366106e-09
3.709909760015489e-09
3.290398285888146e-09
2.5072492313181116e-09
1.8594425002101497e-09
1.4681291404088093e-09
1.1034400643309985e-09
6.08330023864508e-10
1.62245574300753e-10
8.437962217464408e-11
4.4499543083425717e-10
9.505269442063946e-10
1.2211412235733454e-09
1.1394070305813009e-09
9.043447995507925e-10
7.720810241781394e-10
7.868016464110659e-10
7.752124934243909e-10
5.758381710848078e-10
2.421690427991638e-10
1.372224271724539e-11
9.594587950840828e-11
4.671819091617572e-10
8.857675771364535e-10
1.0773557124739188e-09
9.335658941282856e-10
5.670608247238908e-10
2.0406599280514358e-10
2.0212858144896536e-11
4.4392508330427824e-11
1.7884594653403815e-10
2.9266728450149096e-10
3.090997738988546e-10
2.339056557900075e-10
1.2527645069262863e-10
4.2293361063166185e-11
1.0464590909699978e-11
1.934894900182988e-11
4.201638983003357e-11
5.634029331994558e-11
5.4863645846581593e-11
4.2381560541670754e-11
2.792841322929831e-11
1.7993430240856926e-11
1.4057166811411844e-11
1.3926017128860044e-11
1.455156259332888e-11
1.411216769110559e-11
1.243782177882151e-11
1.0265101644768761e-11
8.344478883846062e-12
7.0145952925296456e-12
6.224404760609177e-12
5.726752745137514e-12
5.2607584314371524e-12
4.669434862016608e-12
3.936960846111055e-12
3.14974222704558e-12
2.4241466629072253e-12
1.8530511918336315e-12
1.486675497983098e-12
1.3296072323743893e-12
1.3399646328128638e-12
1.4360117357885973e-12
1.5179911725903063e-12
1.4998060153041216e-12
1.3367937991417936e-12
1.0392293418301587e-12
6.684168982232786e-13
3.1702070344729984e-13
7.890369255721817e-14
2.3943656024533534e-14
1.1097818140476372e-06
6.643104946251425e-06
1.9144681060106943e-05
2.224353756796431e-05
1.219371608335937e-05
2.397131359798461e-06
5.8476656370577885e-06
1.8292223639300885e-05
2.3792440257970378e-05
1.5379168149830397e-05
4.679067283192846e-06
6.124522331445143e-06
1.682561739839888e-05
2.1906607939818702e-05
1.5010655981589454e-05
5.43508334135843e-06
4.876160034365795e-06
1.29241538647892e-05
1.878537564572534e-05
1.4867363994045319e-05
6.712123867905511e-06
4.967069281958814e-06
1.1097917368433027e-05
1.6555085391683528e-05
1.4415564151887459e-05
8.182963855989836e-06
6.006737481047231e-06
1.0459657821638539e-05
1.5396157007935742e-05
1.4395260686756595e-05
9.238404151765082e-06
6.520939064633887e-06
8.952895793272383e-06
1.2548492091697764e-05
1.2569408955411933e-05
8.786395361124522e-06
6.191958474660019e-06
6.990969970649468e-06
8.929733646633006e-06
8.707760784618983e-06
6.477799504442869e-06
4.772573070069662e-06
5.242595604945266e-06
6.529310985268709e-06
6.358504188507284e-06
4.825333591845103e-06
3.528487186565654e-06
3.5822020731363676e-06
4.2234769457459955e-06
4.376729150778621e-06
3.5375277371744356e-06
2.704019473590165e-06
2.4962478787018144e-06
2.822734599705831e-06
2.7992160135309234e-06
2.340358015360102e-06
1.6776423651517272e-06
1.437057325540783e-06
1.462937110775302e-06
1.539625233056845e-06
1.3290086213046358e-06
9.949560079232792e-07
7.054892330100423e-07
6.357920354484185e-07
6.003545821798332e-07
5.394368283780984e-07
4.6631372322432763e-07
4.5490701359183045e-07
4.7954000425465e-07
4.9951038857938e-07
4.619112269996865e-07
3.336023431897689e-07
2.528958809108752e-07
1.7606985454965002e-07
1.5918433800682255e-07
1.1925602759446282e-07
9.617914011257705e-08
4.374166590985623e-08
3.249253079784232e-08
2.3047520100440262e-08
3.4042480337665365e-08
5.0312950471953006e-08
1.0920925064010174e-07
1.564492421115422e-07
1.8369206196894241e-07
1.8322046236091222e-07
1.3611423551324045e-07
1.0142921876840988e-07
4.7984261768586277e-08
3.9856772772824494e-08
3.989011216397584e-08
5.126102039191148e-08
5.5973008197764297e-08
3.80625133987318e-08
3.7942779993275366e-08
2.2680024628295112e-08
1.3081775991644988e-08
5.6465407233074566e-09
1.4341367947503211e-08
2.188398144944986e-08
2.9633742194281455e-08
3.411884434606281e-08
9.249483835693758e-09
4.636810083223137e-09
3.016276429061186e-09
1.3161899308196086e-08
2.7251763987130538e-08
3.685548306612508e-08
6.919530408519043e-08
6.5749889876391e-08
3.365477319027958e-08
1.6765148197611254e-08
2.5501113569535338e-09
2.9694215113687546e-09
4.713726738439831e-09
1.4557477888509083e-08
2.5000469135731732e-08
2.1825188986777918e-08
1.4762748617793461e-08
6.9611068911626484e-09
1.1219633397557389e-27
1.0116243722430185e-28
9.933844983088132e-30
1.4258744401682042e-30
3.9540577235343716e-13
2.0339667431537316e-12
6.194633800371247e-12
1.3313329450884123e-11
2.4552784253303893e-11
3.034083833922677e-11
4.909650391916454e-11
5.627310315900996e-11
6.683713861706684e-11
7.04310155975845e-11
8.175624580908676e-11
7.955898552802831e-11
7.578578953232059e-11
7.978618809436332e-11
8.031650758016381e-11
7.758468926628301e-11
8.510478624560059e-11
1.0394110651540208e-10
1.1597649058511507e-10
1.6682630823653353e-10
1.8264136923108545e-10
3.1087957628529783e-10
3.895133148176628e-10
4.985917729897835e-10
8.178846589824309e-10
8.843206905990834e-10
1.4406363210651469e-09
1.718025765371098e-09
2.1328142518293185e-09
3.195421906513851e-09
3.288241558358075e-09
4.473652169534373e-09
5.508156154496806e-09
5.8338555655781665e-09
7.540684700549147e-09
8.236558515125654e-09
8.88103692462959e-09
1.0464888484051194e-08
1.1040899744348745e-08
1.12784738425668e-08
1.2376366606753151e-08
1.2973434285006844e-08
1.2304920997338424e-08
1.282599084540876e-08
1.2946716519541185e-08
1.1587488289509097e-08
1.1710153872493473e-08
1.0936600384302879e-08
9.108996748987636e-09
8.912342729511611e-09
7.787897488363402e-09
5.813671509810829e-09
4.9264599411887025e-09
4.068175649268113e-09
2.9724884470278055e-09
1.9154187933515665e-09
1.1581833697449496e-09
1.1230061041973796e-09
1.5632424787772113e-09
1.9180184393720173e-09
2.2136782300476137e-09
3.6673080245195743e-09
5.99051506370646e-09
7.991420746667944e-09
1.0305632449441002e-08
1.2387692563418048e-08
1.4356885689131438e-08
1.793813749435088e-08
2.016187666111443e-08
1.9718705076085854e-08
2.1497976436264952e-08
2.431678783001387e-08
2.3741746722636127e-08
2.3088602378203825e-08
2.3847628390959224e-08
2.1878953707375024e-08
1.845022112739268e-08
1.7073218585425223e-08
1.5888740553512378e-08
1.2971817364468965e-08
9.250438349434852e-09
5.818691452575112e-09
4.043005881621288e-09
4.214927720485797e-09
4.510807028304918e-09
4.061792081665242e-09
3.4815621188229617e-09
3.170720463740408e-09
3.6763419778453656e-09
5.326794746925253e-09
8.267291394007297e-09
1.2898021318586402e-08
1.7139873926825717e-08
1.8721738759611358e-08
2.2144302622343247e-08
3.196355954429732e-08
4.2324071387127814e-08
4.772654117982238e-08
5.343366910840267e-08
6.206042853000903e-08
6.771222024548879e-08
7.057626312537478e-08
7.550500876383277e-08
7.777677685890492e-08
7.193460086597166e-08
6.48517170503964e-08
6.26615252678578e-08
5.988546333629258e-08
5.197321897689065e-08
4.228943207613e-08
3.336204369569974e-08
2.4872424393578268e-08
1.8635936698713513e-08
1.7761675015166766e-08
2.4639913621333656e-08
3.9850002118273054e-08
5.87411664132265e-08
7.488428839514244e-08
8.942614712506572e-08
1.0810277597548577e-07
1.30207533143121e-07
1.4981004637366077e-07
1.6177225650708083e-07
1.5901048921130885e-07
1.3589234183528407e-07
1.013693482871068e-07
7.419649646852493e-08
6.014079249425198e-08
4.860421941414155e-08
3.300356090088123e-08
1.9134908324595793e-08
1.3440530911356206e-08
1.5957821651196143e-08
2.3887324245755265e-08
3.440719686891235e-08
4.7841981427811556e-08
7.075035637187998e-08
1.076098882763495e-07
1.4896358869214199e-07
1.7856496731477592e-07
1.9112494483140606e-07
1.911079806795258e-07
1.775568932152446e-07
1.4533661979166843e-07
1.0006767986989007e-07
5.755672606917935e-08
2.807014182439503e-08
1.1355460994705742e-08
4.6478562359207476e-09
5.207248569028596e-09
7.843568609752218e-09
1.0138323308672843e-08
1.799407287089593e-08
3.7505080331269824e-08
6.39838183457157e-08
8.66140243580434e-08
1.0053682364454133e-07
1.0676042088708491e-07
1.0418419078910374e-07
9.094884928837935e-08
7.169169005052908e-08
5.462916118907104e-08
4.170703104810127e-08
2.8920309058387638e-08
1.6074081729690262e-08
8.776241641843017e-09
9.846782481636932e-09
1.5660952731092125e-08
2.300163535170881e-08
3.3302531157950664e-08
4.7014170784660744e-08
5.9193695362908354e-08
6.51485649821734e-08
6.68030235882259e-08
6.867555790894875e-08
6.98509473847426e-08
6.508882815897152e-08
5.325246042709318e-08
3.971070719617981e-08
2.9432130467748716e-08
2.1816014829236315e-08
1.4395886756048803e-08
8.31476854872883e-09
6.817965596381415e-09
9.969348074242274e-09
1.4426838950639353e-08
1.8386756271152835e-08
2.3590393336408123e-08
3.1279549858088135e-08
3.86066904894332e-08
4.127141850793771e-08
3.869964395894649e-08
3.437178581274649e-08
3.102381957064365e-08
2.7547647820736994e-08
2.155930004142861e-08
1.3577396348628622e-08
6.9770677314039395e-09
4.10781469899444e-09
4.0083483047614605e-09
4.4631606372756104e-09
5.154411113544779e-09
7.600818642424724e-09
1.2271847288407744e-08
1.70004720068199e-08
1.8876415437919104e-08
1.7214551407102604e-08
1.3977592191871396e-08
1.1357363585054028e-08
9.580264155334562e-09
7.386184734554203e-09
4.2299614164096485e-09
1.3661232979924323e-09
5.869254267076761e-10
2.219034625606084e-09
4.698218549174046e-09
6.102272941616401e-09
5.881884197149683e-09
5.013962958599461e-09
4.6460113594694e-09
4.828839136481582e-09
4.625895913404396e-09
3.3196974447091754e-09
1.3568680400863035e-09
7.124704316182512e-11
5.02025023638895e-10
2.450542713928859e-09
4.602871841445388e-09
5.540169440286979e-09
4.744135802698967e-09
2.8330583514531206e-09
9.773249382041158e-10
5.885241790571897e-11
2.0162424904279446e-10
8.950046690821178e-10
1.4754053183653379e-09
1.5620191905934837e-09
1.1899490573149084e-09
6.528052092984492e-10
2.4412785463101957e-10
8.829058699508569e-11
1.3178678493925712e-10
2.4124902142039163e-10
3.084929955621098e-10
2.9801289560655274e-10
2.3404763852500784e-10
1.6091902026067245e-10
1.1008398921122604e-10
8.851810800464894e-11
8.545266391096667e-11
8.611299416990844e-11
8.176344155058814e-11
7.16953043021302e-11
5.955582094373808e-11
4.8990811183681665e-11
4.1588150074265407e-11
3.7013792078799e-11
3.397437971532905e-11
3.111386342837741e-11
2.7597229435498027e-11
2.3312617160013776e-11
1.869987134461195e-11
1.4396887436988318e-11
1.0953990999866477e-11
8.703454106914086e-12
7.711834267598178e-12
7.757698509875735e-12
8.365801361295268e-12
8.935477836001365e-12
8.930955699270184e-12
8.054711930627987e-12
6.33990429267324e-12
4.137035877877015e-12
2.0008669722116158e-12
5.090555924005544e-13
5.775166555093396e-14
2.2253080519232915e-06
1.3217129667428652e-05
3.799333853680054e-05
4.4098885067516296e-05
2.418225397642237e-05
4.765230116422413e-06
1.164498848216207e-05
3.641792510001068e-05
4.742630142425265e-05
3.071797925378705e-05
9.358746206526788e-06
1.2256265059248189e-05
3.377151428736424e-05
4.4001739273938054e-05
3.0157186375468596e-05
1.089489094089575e-05
9.804987354216305e-06
2.5981634655875533e-05
3.773161677476464e-05
2.9877655320155747e-05
1.3452772868854321e-05
9.914218634144657e-06
2.212751632330343e-05
3.301981277114788e-05
2.8674364439448963e-05
1.612338521163207e-05
1.1716550478599554e-05
2.0540695767417265e-05
3.0334027987140665e-05
2.827503726717475e-05
1.798182308028934e-05
1.2592192842879712e-05
1.753607819397355e-05
2.4676153052196417e-05
2.4693750657986853e-05
1.7250848942572194e-05
1.2178530708683084e-05
1.3859304958615468e-05
1.7762228690881957e-05
1.7331887521428438e-05
1.2819770508780894e-05
9.390518254777651e-06
1.0299873703480674e-05
1.2812159370383659e-05
1.2469560363829549e-05
9.414632991615861e-06
6.8265109023276185e-06
6.9532648958662574e-06
8.208605480320184e-06
8.47679224981065e-06
6.794735909394278e-06
5.168199238281181e-06
4.768057366034569e-06
5.407087268462157e-06
5.329875930575183e-06
4.425365881252513e-06
3.167994142981749e-06
2.7500833265438096e-06
2.836192483075585e-06
3.0159616525857557e-06
2.6119527545956256e-06
1.988067024852603e-06
1.4428922896629044e-06
1.3241475550770145e-06
1.2324498545384062e-06
1.0778365917204353e-06
8.983296319161167e-07
8.479525281272466e-07
8.69104715280065e-07
8.833094585913392e-07
7.958480181445845e-07
5.716391814473545e-07
4.477100959028612e-07
3.444423718143693e-07
3.3775378775616764e-07
2.7338053977820816e-07
2.458298563470163e-07
1.3862679789682942e-07
1.080593631634351e-07
6.57692648223063e-08
6.483299084829505e-08
7.811756572402884e-08
1.686212250394327e-07
2.515036195853641e-07
3.061404711093261e-07
3.0912208624940435e-07
2.3088680847475708e-07
1.8232337024786392e-07
8.996954001675926e-08
8.074665231045102e-08
8.0652402693963e-08
1.0327483253318502e-07
1.1030592721478364e-07
7.324079335328449e-08
6.879862765217808e-08
3.8069554692936114e-08
2.290165376031675e-08
1.1591414742426511e-08
3.4409394663433686e-08
4.785620666163539e-08
6.387885154487856e-08
7.37203756863967e-08
2.1956865153422822e-08
1.0789847302158253e-08
6.09134132683315e-09
2.4629760402181145e-08
5.0023891656229485e-08
7.034228945997441e-08
1.301583911099001e-07
1.2113810942501793e-07
6.179124981880185e-08
2.8926666674537498e-08
3.577944809638223e-09
9.529972595721136e-09
1.3062138092607863e-08
3.305361940972796e-08
5.3988132857584055e-08
4.707599228283159e-08
3.1470784009528315e-08
1.4467782592985246e-08
2.2859894096389993e-27
2.073570709736803e-28
1.8860460741046456e-29
2.208978513113941e-30
1.416485440998022e-14
4.493020126403192e-14
9.957001427531163e-13
3.536625238266851e-12
8.583684721616042e-12
9.179685760477697e-12
2.063370266438238e-11