# vtk DataFile Version 4.1 
COMMENT
ASCII
DATASET STRUCTURED_POINTS 
DIMENSIONS 400 400 1 
ORIGIN 0 0 0
SPACING 0.002506265664160401 0.002506265664160401 0 
POINT_DATA 160000
SCALARS U double 1
LOOKUP_TABLE default
1.2311327422119026e-06
1.151481027115376e-10
5.535748901005119e-10
8.399537932031247e-10
1.0654896532434483e-09
9.523640982123048e-10
6.762253217575449e-10
4.0905777051382e-10
1.977277634900485e-10
1.1657345668504223e-10
7.715113809964888e-11
1.5737484550738494e-11
1.5571962592541464e-11
1.3730323982602062e-10
4.1928665739789495e-10
7.094978751930715e-10
1.01136883874338e-09
1.0050203287965572e-09
8.503996311511377e-10
7.568199858333669e-10
8.300977761962609e-10
1.11521597335473e-09
1.6992434852571381e-09
2.156810794330771e-09
2.1386129084910016e-09
1.744593020666299e-09
1.049335343594433e-09
5.198571944958241e-10
2.0277218613820094e-10
9.991087983508795e-11
1.034358765963627e-10
2.4370805241021584e-10
4.60877903564154e-10
7.737379347487907e-10
1.0967185355402934e-09
1.4546697745585598e-09
1.5791227337238836e-09
1.3659100367752298e-09
9.414839975958229e-10
3.839218813721947e-10
1.6915105377756054e-10
4.79230769825055e-10
1.0292554956406854e-09
1.0891522944232397e-09
8.318747223882655e-10
4.305024656345287e-10
2.7862565167495586e-10
4.960993460461587e-10
5.481073073610612e-10
2.4990408326643513e-10
1.624659303756868e-10
9.724525109484741e-10
2.6129021602041888e-09
4.080235312600435e-09
4.1002404751534946e-09
2.5972255655066747e-09
8.627176631075819e-10
2.1590077265548592e-11
4.0275847967331734e-10
1.2038172267805028e-09
1.6116638289990216e-09
1.180195192020806e-09
4.544789004093505e-10
4.515577711438919e-11
5.277823053880543e-10
1.782208697841959e-09
3.0564427723319636e-09
3.6440478160742904e-09
2.972941114366025e-09
1.5180008502928984e-09
4.5533397769391694e-10
5.318981548054651e-10
1.5682620102845054e-09
2.804602941783028e-09
3.0102691306385452e-09
2.290842974076158e-09
1.3517094030414384e-09
6.112510045490194e-10
3.7239585505041544e-10
4.0635641762250214e-10
7.153888072396099e-10
1.241768380820266e-09
1.7388764363273797e-09
1.8171429787400145e-09
1.2085089752381946e-09
4.312159039028581e-10
3.024381408035923e-11
3.3047016913353346e-10
1.0487599328717133e-09
1.666199030550946e-09
1.6858073362504915e-09
1.1152611181629776e-09
3.9110415284399496e-10
8.276613291402914e-11
6.833846992598727e-10
1.7648965612177794e-09
2.5731016860344775e-09
2.3042688374064237e-09
1.167291925047869e-09
2.6201967922130547e-10
3.0340098747215996e-10
9.827415497580184e-10
1.3043413546467995e-09
1.0720622524610708e-09
1.2649919491101658e-09
2.4838537509342598e-09
3.823269626258849e-09
3.4001661922339295e-09
1.4804078081936946e-09
2.6039514432194406e-10
2.165115055319646e-09
6.394522929247709e-09
9.809060838129181e-09
9.042407054942471e-09
5.183195592271626e-09
1.4267166770191483e-09
4.081153195851919e-10
1.3396650568978739e-09
1.6802892321424762e-09
8.453378760320827e-10
2.607947657100893e-28
3.93240822619927e-29
2.278883191578236e-29
4.0384474293959343e-28
1.3308943737820244e-09
2.7446036774610254e-09
2.382459265142298e-09
9.155210362241789e-10
3.6835184021261246e-10
1.0708775738652813e-09
1.3514981644847653e-09
5.95970553495105e-10
1.7783967845738493e-10
8.858530949826888e-10
1.6676809243388516e-09
1.3140271392225467e-09
6.506809737966478e-10
1.1407728111136284e-09
2.340718255929489e-09
2.4668333290972655e-09
1.1556869440688179e-09
4.0330034321829456e-10
1.3943999671045307e-09
2.777552064746598e-09
2.6586837322662334e-09
1.2484454231950863e-09
3.431584399437196e-10
6.259892270422076e-10
1.139787324372524e-09
1.1544434242536927e-09
1.344339172549082e-09
2.2541130255620435e-09
3.239718977453646e-09
3.1518947977340213e-09
2.3493403946835996e-09
2.3705607978109116e-09
3.439797878917354e-09
4.429904584981357e-09
4.170951367812309e-09
2.935079280065492e-09
1.94021164205142e-09
1.5500081233150523e-09
1.5365842185484646e-09
1.5116411723122798e-09
1.6428258498638905e-09
1.803801218424843e-09
1.5825778016913995e-09
1.0423646855037886e-09
1.3274198650777077e-09
3.1099184654632832e-09
5.8144274160911955e-09
7.090995795763369e-09
5.9158228762713345e-09
4.0575292097863535e-09
3.0878048144562037e-09
3.96543798796991e-09
4.805065246222185e-09
4.63117006383823e-09
3.5152347376855918e-09
2.2857781118729106e-09
1.697467748592814e-09
1.2579485916327668e-09
1.197116723948012e-09
1.2085260044343512e-09
1.2235327835714772e-09
1.1566245151667814e-09
1.121103537857744e-09
2.0450182275911175e-09
3.645293619370663e-09
4.874832407149691e-09
4.9990606026283185e-09
3.892470499839655e-09
3.006666961885973e-09
2.944323128530148e-09
3.29651111517438e-09
3.409252572893811e-09
2.6086822837940462e-09
1.5642482283191723e-09
1.0255531673202885e-09
6.823743593828703e-10
4.3008305818113433e-10
2.8134159735086183e-10
1.449766765172062e-10
1.4970457326489176e-11
6.934766127825443e-11
3.7758065075588204e-10
9.246678854508906e-10
1.413082561677024e-09
1.6179083636700939e-09
1.5852832396354984e-09
1.5365530212699529e-09
1.6525421871814544e-09
1.9393048417579554e-09
2.0676043530428545e-09
2.1242785924329625e-09
1.8645464516559596e-09
1.5046458781912246e-09
1.2385880384752689e-09
1.3298106407878913e-09
1.6460126119399532e-09
1.9394744828958785e-09
1.9219968174191312e-09
1.5768039235526134e-09
9.046134169015926e-10
3.6204235711499884e-10
9.665480723699921e-11
1.5976703705006872e-11
2.1155578076170707e-12
3.0194398371985506e-11
1.828625923416186e-10
4.682317973949915e-10
7.997857233871478e-10
1.1491418398437002e-09
1.281368985996931e-09
1.244957706036842e-09
1.286894507930514e-09
1.5904952403852775e-09
2.420380857284961e-09
3.204510041921634e-09
3.436363160396239e-09
3.069393581416987e-09
2.29347465327722e-09
1.4362366616262803e-09
8.271648265497105e-10
4.508402378657909e-10
2.516375791118386e-10
1.4815011109538423e-10
1.2252510211536617e-10
8.040831174285879e-11
3.2734315517702834e-11
1.2006519592973663e-11
1.1005552211513812e-10
4.2489631443853216e-10
7.735461496356405e-10
1.1476115164978704e-09
1.5098580927780743e-09
1.6629882081508832e-09
1.4326834141772147e-09
1.2315563271856077e-09
1.0637516846452734e-09
9.197494086782559e-10
7.955381461550908e-10
6.834103618239808e-10
4.881891090408484e-10
3.085225972743509e-10
1.4656807340657707e-10
1.0931271652317727e-10
1.4765763942151472e-10
1.5931587935701092e-10
1.1316477300725178e-10
8.263761665412692e-11
1.6933902389084283e-10
4.426898379559976e-10
7.154237135546428e-10
7.898993911650499e-10
5.921965545790247e-10
2.917522964770985e-10
2.3426617053432927e-10
5.119959115710827e-10
8.736349419315364e-10
9.417621316290944e-10
6.904531771498743e-10
3.311686116453201e-10
1.73082104750324e-10
3.3515677224524047e-10
6.99267706616735e-10
8.768053472070457e-10
7.923119695021799e-10
4.993304282983006e-10
2.2991719361605333e-10
9.817247951650871e-11
9.665860778575812e-11
1.8264764500669185e-10
1.9692691003786323e-10
1.5689898241486945e-10
8.234600662593695e-11
1.0655292190341957e-11
2.7582677063708877e-12
5.5182811934301114e-11
1.3813362649226077e-10
2.3086564761261358e-10
2.975221520259915e-10
3.445181416971969e-10
3.376405414643432e-10
3.000157822554066e-10
3.0603969104371967e-10
2.738200962618926e-10
1.829036404527622e-10
9.232912816570271e-11
1.844361611186909e-11
2.1886872473080265e-11
1.0781174279650413e-10
2.653516891905245e-10
3.74999274089152e-10
4.316863336008923e-10
3.585205739239821e-10
1.9586329388676728e-10
9.68370386495872e-11
1.407992754919212e-11
7.2284447971537e-12
3.0149481624311845e-11
4.7234319672798395e-11
6.025349889453915e-11
7.295149237324606e-11
7.598840277807338e-11
7.598329199511783e-11
4.0782528498642754e-11
1.3894693525600558e-11
3.357566455849269e-11
1.1730838336938457e-10
2.330721106569054e-10
3.390981207797985e-10
4.215838274524205e-10
3.714135182420205e-10
2.886936959722582e-10
2.3092667487991178e-10
1.4509984436257535e-10
7.223824743115543e-11
4.737320884599541e-11
1.4840421485542556e-10
3.836943913950946e-10
6.702759324758965e-10
7.648598487321644e-10
6.103711916618896e-10
3.0428462170507827e-10
7.91292017518147e-11
2.0226557484135956e-11
8.389642905527164e-11
1.366136059970384e-10
1.569645404749312e-10
2.0354329760078786e-10
2.595446630502059e-10
2.649083689477004e-10
1.939138566921842e-10
8.530018346848574e-11
4.516680963982444e-11
9.631180321207928e-11
1.6424704653357264e-10
1.8732459155499298e-10
1.955183569537965e-10
1.9285519445130842e-10
1.67605781103979e-10
1.0425408536268932e-10
1.6597343717061955e-11
4.157950820339259e-11
1.459073512806712e-10
2.7183127425596833e-10
2.4351402232406096e-10
1.4295350424280384e-10
1.5690889767723152e-10
3.0678260264486694e-10
4.807023928349297e-10
4.706812086840795e-10
2.729112712569989e-10
8.162122516494436e-11
7.11410129223419e-11
2.0232001096552675e-10
2.2593874910977986e-10
1.8029618481460577e-10
1.1389328126087653e-10
6.15560803970474e-11
3.7270990162913985e-11
7.823394313529762e-12
2.5118125507916755e-11
1.5826517515223427e-10
3.150069259257127e-10
4.235494461797675e-10
3.422583111354086e-10
1.957413186931798e-10
1.4593531241457692e-10
1.8358506455566026e-10
2.7253602922239125e-10
3.015402728018639e-10
2.1878656786416977e-10
1.3855207942292266e-10
1.1743348752531633e-10
1.5727723546216283e-10
1.1737579081739475e-10
4.046572069316904e-11
6.959672281185488e-31
1.2196780039994877e-10
7.269176039807228e-10
3.4946588199011305e-09
5.302538074286101e-09
6.726321733170627e-09
6.012172255447719e-09
4.268937820664886e-09
2.5823377670104532e-09
1.2482341323219346e-09
7.359157105134897e-10
4.870468477650677e-10
9.934904955372938e-11
9.830412721089053e-11
8.667806048281586e-10
2.6469116311911673e-09
4.478983876588744e-09
6.384662844526749e-09
6.344585383146834e-09
5.368481527230028e-09
4.777723278037061e-09
5.240318097589041e-09
7.0402386507652145e-09
1.072714160108524e-08
1.3615714874454382e-08
1.350083357584281e-08
1.1013428346980219e-08
6.62434131154403e-09
3.2818026292775466e-09
1.2800790306616587e-09
6.307266526420238e-10
6.529795785644317e-10
1.5385027573805774e-09
2.909472700785934e-09
4.884524472327483e-09
6.923466312713437e-09
9.183174035913444e-09
9.968832199221624e-09
8.622843345263247e-09
5.943487348923333e-09
2.423657598788068e-09
1.0678324334255703e-09
3.025332374149151e-09
6.497579388254671e-09
6.87570144525637e-09
5.25153576803152e-09
2.7177158238621083e-09
1.7589338109244633e-09
3.1318218839236106e-09
3.4601425573580602e-09
1.5776176346397948e-09
1.0256299674606785e-09
6.1389882472885375e-09
1.6494970676936493e-08
2.57580872569241e-08
2.588437769930112e-08
1.639600601848578e-08
5.446243939850648e-09
1.3629583871605324e-10
2.5425710205619508e-09
7.599568846689479e-09
1.0174260638347279e-08
7.450445478572122e-09
2.8690764812076785e-09
2.8506357059229604e-10
3.331833003077915e-09
1.12508920765663e-08
1.9294994919140174e-08
2.300448244369112e-08
1.8767857921589492e-08
9.582976314424757e-09
2.8744744922584767e-09
3.3578159183530767e-09
9.900269618734929e-09
1.7705157119830945e-08
1.900350567879266e-08
1.4461845628348842e-08
8.5331962698387e-09
3.858761935233018e-09
2.3508950326671502e-09
2.5652844163687816e-09
4.516172697834113e-09
7.839150405683971e-09
1.0977340164085779e-08
1.1471428439469482e-08
7.629187350746723e-09
2.7222196830173166e-09
1.909259497015607e-10
2.086222680849976e-09
6.620708805458261e-09
1.0518535507938843e-08
1.0642320635627334e-08
7.040523645090526e-09
2.4689985071180935e-09
5.224937069031515e-10
4.314134201824748e-09
1.1141602417611503e-08
1.624371455860321e-08
1.454660166143658e-08
7.368988540154401e-09
1.6541020905267988e-09
1.915337844611741e-09
6.20394184411362e-09
8.234166868281533e-09
6.767813846046931e-09
7.985758297778099e-09
1.5680301930730383e-08
2.413589048058094e-08
2.1464883948515915e-08
9.34565547764503e-09
1.6438465762037784e-09
1.3668138782089111e-08
4.0367936395558074e-08
6.192354744755648e-08
5.708374446310836e-08
3.272095702988958e-08
9.006709133681473e-09
2.576388175529785e-09
8.457161606357283e-09
1.0607485437111178e-08
5.336527210863232e-09
1.646369343102489e-27
2.482487073906809e-28
1.438634480607912e-28
2.5494284838828345e-27
8.401793225934911e-09
1.732638820888488e-08
1.5040209433041615e-08
5.779585962551393e-09
2.325365601377063e-09
6.760335097321942e-09
8.531862743520246e-09
3.7622980890532654e-09
1.122682787755489e-09
5.592295436225214e-09
1.0527890544246794e-08
8.295312185926185e-09
4.107679095790347e-09
7.201576222392968e-09
1.4776702925420523e-08
1.5572853835893044e-08
7.295727541762908e-09
2.5459917469180416e-09
8.802697215234815e-09
1.7534387838723833e-08
1.6783984823814634e-08
7.881301856993083e-09
2.1663223715856958e-09
3.951802750751462e-09
7.195354950450753e-09
7.287877334740581e-09
8.486668796401192e-09
1.4229973408664064e-08
2.045199791577213e-08
1.9897573302686727e-08
1.4831133561242886e-08
1.4965095686832166e-08
2.1715074529578296e-08
2.7965511814335884e-08
2.6330767969366178e-08
1.852884022851463e-08
1.2248347691743647e-08
9.785034791006925e-09
9.700291122121314e-09
9.542828350447082e-09
1.0370983128851825e-08
1.1387203339682244e-08
9.990643672180313e-09
6.580336295759155e-09
8.379859025692987e-09
1.963258122587775e-08
3.670585573097194e-08
4.476469479142544e-08
3.734595437986861e-08
2.561474606879613e-08
1.9492980122370196e-08
2.503338407729057e-08
3.033386077150616e-08
2.9236079163770915e-08
2.2191299316060556e-08
1.4429871697293291e-08
1.0715931566261092e-08
7.94129433857352e-09
7.55726929203106e-09
7.6292948542329e-09
7.72403103899797e-09
7.301646327396748e-09
7.0774062130700334e-09
1.2909980408634986e-08
2.301234706608529e-08
3.0774293364520826e-08
3.155853261881749e-08
2.457274816240267e-08
1.8980765574378492e-08
1.858719565095977e-08
2.081052058097243e-08
2.1522245293623655e-08
1.6468331050430097e-08
9.874931044321328e-09
6.474206987247291e-09
4.307756034705171e-09
2.715068149658767e-09
1.7760792842477818e-09
9.15222186430488e-10
9.450688907596549e-11
4.377843367887683e-10
2.383626091039766e-09
5.837329039226401e-09
8.920638428011907e-09
1.0213681714979704e-08
1.0007722811321398e-08
9.700094177053068e-09
1.0432321322673795e-08
1.2242623158893416e-08
1.3052564192561632e-08
1.3410342578264543e-08
1.1770681472224581e-08
9.498667810048452e-09
7.819073246071057e-09
8.394951735950281e-09
1.0391100815537396e-08
1.2243694085175408e-08
1.2133359460354356e-08
9.95419379968144e-09
5.710727333391246e-09
2.2855345123042014e-09
6.101714160757784e-10
1.0085921437930788e-10
1.3355289200450058e-11
1.9061399364250158e-10
1.1543919035789216e-09
2.955897042634039e-09
5.0489613641226055e-09
7.254409001820957e-09
8.089144772532743e-09
7.859284273200282e-09
8.12402679898493e-09
1.0040625612216578e-08
1.527960437095506e-08
2.0229727687666337e-08
2.1693391520488925e-08
1.937675198580484e-08
1.4478459136467814e-08
9.066807773933373e-09
5.221802701508156e-09
2.8461059954109225e-09
1.5885610077113256e-09
9.352557380534591e-10
7.734878088292741e-10
5.076090351108961e-10
2.0664821776254343e-10
7.579586853060253e-11
6.947686896865188e-10
2.682324793536958e-09
4.883313753508436e-09
7.244748234915801e-09
9.531571960874089e-09
1.049826593101226e-08
9.04437650445344e-09
7.774682807998709e-09
6.7153501240912805e-09
5.806279223670559e-09
5.0221468653028975e-09
4.314296206835462e-09
3.081885407373715e-09
1.947670017163983e-09
9.252685040559015e-10
6.900794377716667e-10
9.321468172743264e-10
1.0057440337371394e-09
7.143970565935467e-10
5.21682397558744e-10
1.069019068560232e-09
2.794653396241713e-09
4.516393057651515e-09
4.986550010728026e-09
3.73847323927371e-09
1.84180090958421e-09
1.4788971712817566e-09
3.2321751945799627e-09
5.515163548405376e-09
5.945243179200081e-09
4.358756743495822e-09
2.0906318734048736e-09
1.0926487359694852e-09
2.115808702890696e-09
4.4144019212224524e-09
5.535177976365989e-09
5.00178035862734e-09
3.152219359120189e-09
1.451442547134624e-09
6.197523181581408e-10
6.101954085318643e-10
1.1530349641417304e-09
1.2431784305005976e-09
9.904864229482666e-10
5.198414947735748e-10
6.72657150775772e-11
1.7412647755694453e-11
3.483631643735431e-10
8.72022746657564e-10
1.4574300353383397e-09
1.8782253879051704e-09
2.1749060227053524e-09
2.131488471181054e-09
1.893967407694426e-09
1.93199569682715e-09
1.7285968557823406e-09
1.1546510358954583e-09
5.828638687341294e-10
1.1643256742463701e-10
1.3816947498144925e-10
6.80603951859714e-10
1.6751367115603072e-09
2.367330137416875e-09
2.7251894551706014e-09
2.2633018733056516e-09
1.2364639359852444e-09
6.113218234093698e-10
8.888507024662756e-11
4.5632395573352346e-11
1.9033043903909362e-10
2.981851865004268e-10
3.803738664943278e-10
4.605349353920752e-10
4.797066245731947e-10
4.796743607493623e-10
2.574557218261359e-10
8.771570775229101e-11
2.1195956388497642e-10
7.405552237308458e-10
1.4713591995334856e-09
2.1406900128361263e-09
2.66141341899878e-09
2.3446936459117872e-09
1.8224922931315133e-09
1.4578152939216529e-09
9.159997318084393e-10
4.5603229668464696e-10
2.990619789322757e-10
9.368598677964775e-10
2.422221478998084e-09
4.231379965173351e-09
4.828478068928998e-09
3.85320777098017e-09
1.920916132610089e-09
4.995341511308543e-10
1.2768808479614878e-10
5.296291450339818e-10
8.624270205416358e-10
9.909002839396288e-10
1.2849469744973462e-09
1.6384775792882914e-09
1.6723380784858465e-09
1.224157348371316e-09
5.384908958627142e-10
2.851332177403288e-10
6.080060685096521e-10
1.0368739624498555e-09
1.1825600253349127e-09
1.2342863861782131e-09
1.2174741273590672e-09
1.0580772930200807e-09
6.581448426197515e-10
1.0477724811042243e-10
2.624869690960049e-10
9.210974362453986e-10
1.7160416360848663e-09
1.5372778662880927e-09
9.024501171777879e-10
9.905490169345272e-10
1.9366856179666095e-09
3.0346225721386123e-09
2.971359913002712e-09
1.7228595411463354e-09
5.15266027261494e-10
4.4910557308808167e-10
1.2772244973661923e-09
1.4263270543043562e-09
1.1381904485271802e-09
7.189960509472071e-10
3.885969236050901e-10
2.3528775749858594e-10
4.938824796474603e-11
1.5856802831083408e-10
9.991110509519865e-10
1.9886048874369184e-09
2.673822158890936e-09
2.16063995510463e-09
1.2356939196898848e-09
9.212739518803487e-10
1.1589527930630445e-09
1.720490678487841e-09
1.9035913527636572e-09
1.3811761023401791e-09
8.746643950614239e-10
7.413449928293929e-10
9.928742938064232e-10
7.409807597096776e-10
2.554557481795507e-10
2.702901328930716e-11
3.884730260529386e-10
2.670896402108427e-09
1.0982635059814713e-08
1.7068682168351024e-08
2.0971176654306915e-08
1.7682041131898633e-08
1.2724213828412257e-08
7.150444368767629e-09
4.146781231889914e-09
2.94077218343211e-09
2.707965714017951e-09
1.1203210292939682e-09
3.1556043604566255e-10
2.434967356593302e-09
8.50522527646979e-09
1.4355076333479925e-08
2.190162257364979e-08
2.1824188366363357e-08
1.7514383456982656e-08
1.576619899467129e-08
1.547213164401997e-08
2.2432906355932535e-08
3.414920540294624e-08
4.2593370308170586e-08
4.243953516347406e-08
3.1601671599602644e-08
1.7987606421898828e-08
7.763391594147651e-09
2.4268624860219484e-09
7.068366438136658e-10
1.2420853401002478e-09
3.997964661917631e-09
9.447717446053364e-09
1.5601775564867324e-08
2.040915890883076e-08
2.7284117502154654e-08
3.056707693640264e-08
2.6851079039400067e-08
1.950134243399801e-08
7.59865456351803e-09
3.0580008767121413e-09
1.0533254467049974e-08
2.2069457761065268e-08
2.4334234819131162e-08
1.6939908417657777e-08
7.03099950542058e-09
4.246256067833828e-09
9.70569303944934e-09
1.1973142893283479e-08
4.909607221827564e-09
1.98684385255704e-09
1.949299930402201e-08
5.4777021880096e-08
8.466464606459065e-08
8.421896615314106e-08
5.131733129428086e-08
1.434071302276907e-08
2.2254010032282667e-11
1.2016559311831061e-08
3.1038688595321983e-08
3.80534404347531e-08
2.6933131434721968e-08
9.979144189840095e-09
1.025598564392939e-09
1.0384047868897365e-08
3.5126155370019943e-08
5.948582162863509e-08
7.14161288096985e-08
5.8663046683212635e-08
2.8738394729838884e-08
8.129430939014119e-09
1.0712977159219545e-08
3.18565650904558e-08
5.6408230809772946e-08
5.9099785343841055e-08
4.273512252316854e-08
2.403595902472666e-08
9.727409685734901e-09
5.111424559394886e-09
5.560177785248296e-09
1.0477618339473577e-08
2.057014305389605e-08
3.155351613663352e-08
3.5891493657044346e-08
2.4162322401989596e-08
8.861354179137925e-09
2.173290837287002e-10
5.639015823232146e-09
2.0740959182235678e-08
3.3271624883691065e-08
3.632027339872813e-08
2.5849729189084743e-08
1.0652935132811557e-08
2.520287777040364e-09
1.3858166814807237e-08
3.858573372857719e-08
5.6837332626034615e-08
5.1878741078681014e-08
2.6113817437993384e-08
3.753976568322127e-09
5.1066783766746225e-09
2.2025908927010816e-08
2.7066028741475186e-08
1.8472588089256865e-08
2.0173472158025934e-08
4.997870174346355e-08
8.733087903704931e-08
8.322836912247097e-08
3.772822053645831e-08
5.078471167373822e-09
4.471338206707098e-08
1.3940742535082004e-07
2.192002566505024e-07
2.0129851279556737e-07
1.097730276730811e-07
2.5061985557503743e-08
9.0871431691403e-09
3.900501355155785e-08
4.697586408494229e-08
2.3707855424378184e-08
5.209873847172429e-27
7.7381683341526285e-28
4.323728082640777e-28
7.785719459013285e-27
3.531419231933274e-08
7.438221399602837e-08
6.377574561632307e-08
2.3337841422865425e-08
8.81938477105603e-09
2.734675323805405e-08
3.545789784072012e-08
1.5147215328634932e-08
4.162991595425774e-09
2.2461124423667363e-08
4.278750054706235e-08
3.268102380088134e-08
1.5327292401647052e-08
3.11539393667674e-08
6.648291294264433e-08
7.231033657649682e-08
3.625927808196778e-08
1.3064210089432671e-08
3.548055894894211e-08
6.991297093289818e-08
6.740999819437087e-08
3.132548917292619e-08
9.727355981643783e-09
1.689197991391728e-08
2.7691827517970866e-08
2.5218733280084563e-08
2.9129618714894558e-08
5.5240975812958427e-08
8.296893415641328e-08
8.235056205765354e-08
6.135079246514383e-08
6.147290332455385e-08
8.966986197195642e-08
1.1571611285611466e-07
1.0879777122751653e-07
7.660646474402964e-08
5.2136428403603174e-08
4.2449837573658256e-08
3.922303347175554e-08
3.4251081269016125e-08
3.540203640972923e-08
4.1885873476262034e-08
4.029235544003406e-08
2.84278690383119e-08
3.462497382398501e-08
7.74000177406012e-08
1.4527036572470808e-07
1.775362882414441e-07
1.519631628689274e-07
1.0952639870204037e-07
8.846233363145638e-08
1.1051552977126606e-07
1.2640564561949736e-07
1.1848826316657889e-07
8.823862569919032e-08
5.809493916390041e-08
4.238635162503827e-08
2.8802694625956546e-08
2.4067665551462537e-08
2.458998270743206e-08
2.8236890479152203e-08
2.9392786878197554e-08
3.0121327028313595e-08
5.4596090283552475e-08
9.563749617704453e-08
1.288694505787477e-07
1.3280639326125678e-07
1.0614817535410869e-07
8.715367548824226e-08
8.542931227307756e-08
9.391759219897051e-08
9.376902565425478e-08
7.091134290137293e-08
4.401261159320828e-08
2.868653422993975e-08
1.7520689960694543e-08
9.75719516777138e-09
4.924290635185365e-09
1.8420159216973602e-09
1.1551043059898768e-11
2.7020788767851988e-09
1.1646889192062394e-08
2.5923205546589e-08
3.826641656365595e-08
4.264146673535608e-08
4.2415944050866654e-08
4.1730026178344864e-08
4.566915446747096e-08
5.408005563490997e-08
5.8028251673383205e-08
5.8765413690144406e-08
5.117838593423587e-08
4.136200002233111e-08
3.4879193621535415e-08
3.6288132319892094e-08
4.2527472874479984e-08
4.925256010849074e-08
4.938057846293259e-08
4.197072286802396e-08
2.5962892985569478e-08
1.259303076870413e-08
4.654388519316376e-09
1.6180169796686204e-09
7.209869907513402e-10
1.5220878948940004e-09
5.542455664580951e-09
1.3224129350726839e-08
2.1943606399799122e-08
3.015665292974633e-08
3.383460958527772e-08
3.3705883571674093e-08
3.597001674918637e-08
4.46451774766952e-08
6.346043554509122e-08
8.079341437126404e-08
8.573700405174744e-08
7.772634636654565e-08
6.085324148880283e-08
3.9641528096636156e-08
2.4125330521800822e-08
1.4443898189056712e-08
8.233058171590846e-09
3.946820424195642e-09
1.663670778132e-09
4.814708729160246e-10
9.340809289619521e-11
8.400212821251722e-10
4.299144129162571e-09
1.2392686095812317e-08
2.112923540988908e-08
3.0434924616002424e-08
3.941000955171789e-08
4.487248986067209e-08
4.0726434980063286e-08
3.556257939790776e-08
3.135261971564637e-08
2.7741991675452913e-08
2.3702877867924387e-08
2.0763975588481522e-08
1.5474487458462307e-08
9.551400810923321e-09
4.222175702731256e-09
2.2105084122825427e-09
2.6996660806797133e-09
3.1899740620462535e-09
2.7198280924345634e-09
2.719421032767937e-09
5.194122864348535e-09
1.134146020584193e-08
1.7074896740266564e-08
1.8039729320101335e-08
1.2938922734818473e-08
7.11789593291201e-09
7.922836345369718e-09
1.6270611366267686e-08
2.5172465496233668e-08
2.6237970461398815e-08
1.90926956359408e-08
9.303346819984292e-09
4.7299326480118425e-09
8.565969882051121e-09
1.704748968563938e-08
2.08533276907631e-08
1.887200551866331e-08
1.1819126476106213e-08
5.318628517328906e-09
1.976788750084211e-09
1.4228696483406496e-09
2.723176953409369e-09
2.7084878401033673e-09
2.035100154512938e-09
8.673429099674065e-10
2.070840199451967e-11
3.992379201681611e-10
1.9565883329685436e-09
3.6922956488890563e-09
5.323053516326612e-09
6.322140311326975e-09
7.09901495297716e-09
6.933123254882033e-09
6.4873039485142e-09
7.003011689810491e-09
6.345137154407079e-09
4.7606370457154556e-09
2.834184512201488e-09
8.208345141729375e-10
5.411302512483319e-10
2.1636659388039e-09
5.382724229870237e-09
7.419146056148957e-09
9.229468597733821e-09
7.917183949518653e-09
4.181315855876679e-09
2.021904060982557e-09
2.0475202835140873e-10
1.0585545354899857e-10
5.13487094461415e-10
7.805714267603849e-10
8.977840757467096e-10
1.2418440865778288e-09
1.5423542355589531e-09
1.7682776220866466e-09
9.87463028145022e-10
4.193599450371056e-10
1.0020656343306445e-09
3.0018954115715495e-09
5.165258621851042e-09
6.900866614642934e-09
8.333207032806813e-09
6.9917672533266475e-09
5.4737808013249435e-09
4.404263540845371e-09
2.8794235170404676e-09
1.5028835899865498e-09
8.157482928990611e-10
2.6491174889322586e-09
7.317033449640167e-09
1.3460625014466727e-08
1.541075273662453e-08
1.24857628923824e-08
6.107499346101224e-09
1.467095746714345e-09
4.99716019269883e-10
1.8637135452162775e-09
2.6238443346984475e-09
2.5297165001134585e-09
3.2821701270427607e-09
5.005607014707969e-09
5.499768180302902e-09
4.149576189202832e-09
1.7505525481496428e-09
1.3061532152010868e-09
2.9664580936846463e-09
4.613914833660509e-09
4.647483034225864e-09
4.1878210161817894e-09
3.7598062001235755e-09
3.288983911260162e-09
2.2049642630927255e-09
1.646472991054306e-10
7.392253562126663e-10
3.3627066716993786e-09
6.8175328218386636e-09
5.769620294672387e-09
2.96017816056589e-09
2.7299107216384608e-09
6.37980174399845e-09
1.0346974744677163e-08
1.0366888263546751e-08
5.813028727595466e-09
1.5249530504297387e-09
1.5939676201375334e-09
4.305079394252005e-09
4.278675882613107e-09
3.2989850279647014e-09
2.242189569268873e-09
1.6146856599952826e-09
1.124890559048333e-09
3.306936555160211e-10
4.570720232934204e-10
3.4108058030878194e-09
7.008952111646759e-09
9.706947794108832e-09
7.585146785340831e-09
4.090845411801211e-09
2.6883393300084637e-09
3.3700738068355663e-09
5.365567048487262e-09
6.030494522320729e-09
4.2163272576294065e-09
2.4974194654103224e-09
2.1362344345642472e-09
3.2135172464796862e-09
2.3319696029638945e-09
8.292809344165653e-10
1.30267025518886e-10
6.225080397100295e-10
3.8443038142020315e-09
1.6870054107785567e-08
2.4241818847861102e-08
2.953303488497574e-08
2.3715130597338754e-08
1.498683127141005e-08
8.41871292527174e-09
6.036658920260766e-09
6.905222873841547e-09
9.049799257743292e-09
5.572361194828777e-09
1.949883633215106e-09
2.218049719593568e-09
1.0529213097369861e-08
2.2075466949806e-08
3.609163080383084e-08
3.85609412242779e-08
3.2446796231775995e-08
2.5363714121828798e-08
2.1749838263469996e-08
2.7829320194867516e-08
4.506204920593357e-08
5.660602540017519e-08
5.449655173978824e-08
3.9137085600990535e-08
1.923631207371338e-08
7.560116221329299e-09
2.463128492552679e-09
6.965240637651378e-10
2.912955456047232e-10
3.775346738632028e-09
1.1465042512362457e-08
1.984189556710326e-08
2.4258686855349257e-08
3.183271824972457e-08
3.942282497154341e-08
3.901481349627375e-08
2.9545971687283274e-08
1.1904020341847056e-08
4.526143474516961e-09
1.693421585285709e-08
3.854886931535531e-08
4.2281953938516273e-08
2.7184743906618214e-08
7.99176293999026e-09
5.817250304617712e-09
2.0976502704918378e-08
2.823814458205325e-08
1.3116276448153344e-08
5.420592404825087e-10
2.232764437477484e-08
7.939120345011093e-08
1.2767390960236597e-07
1.2668142918658787e-07
7.119931094772476e-08
1.4565199744797367e-08
1.449914932086037e-09
3.318473008397386e-08
6.547131726910405e-08
7.123180579760899e-08
4.4237059503308575e-08
1.4183624641106303e-08
2.9312214286761252e-09
1.966134355707833e-08
5.648017451394568e-08
8.785674601392984e-08
1.0073137496620855e-07
7.844487724389344e-08
3.3532566811385804e-08
6.346627243082793e-09
1.5819311013635428e-08
5.144306408759806e-08
8.7702615462034e-08
8.434796005383061e-08
5.616607337030792e-08
2.6537488377603256e-08
9.896929999237419e-09
6.58441097922376e-09
6.9694556649676155e-09
1.0268229065137679e-08
2.342761782890706e-08
3.822211636701569e-08
4.525274465278524e-08
2.8819970077549343e-08
9.565981288393271e-09
5.818194082423828e-10
9.542326333172831e-09
2.692593512845194e-08
4.1979377638856296e-08
4.807310547073469e-08
4.036437825496575e-08
2.4063569303291953e-08
9.893263449997854e-09
2.1146344970108433e-08
5.329843203951404e-08
8.408279229890448e-08
8.027509683378061e-08
4.0026684076441756e-08
3.3643290188756253e-09
9.122729644253554e-09
4.167364840232498e-08
5.1737305087604134e-08
2.6163052922963837e-08
1.6620795566039383e-08
6.597151574451264e-08
1.4329056579747873e-07
1.503152608547588e-07
7.671762994826444e-08
8.055522003582017e-09
5.70297940021437e-08
2.0784157075172667e-07
3.4043120956463807e-07
3.053901632884678e-07
1.5433391695583157e-07
2.482880670996567e-08
2.2692552993180342e-08
9.372499855839285e-08
1.0799867616956221e-07
5.229629299290112e-08
1.178139229477538e-26
1.7673567597669043e-27
9.763963278864395e-28
1.7412245306066742e-26
7.829826403935128e-08
1.6075643766864372e-07
1.3433762508745698e-07
4.6178418181049176e-08
2.0282495203943284e-08
6.83409876467447e-08
8.719887837043124e-08
3.900099045719565e-08