# vtk DataFile Version 4.1 
COMMENT
ASCII
DATASET STRUCTURED_POINTS 
DIMENSIONS 400 400 1 
ORIGIN 0 0 0
SPACING 0.002506265664160401 0.002506265664160401 0 
POINT_DATA 160000
SCALARS U double 1
LOOKUP_TABLE default
1.2396069268158286e-06
6.644829196252073e-11
2.0500729615573662e-10
6.247266195397035e-10
1.116597757514399e-09
2.1241257865825784e-09
3.5552443427779034e-09
4.932976081521085e-09
5.689895059971784e-09
5.429478486933152e-09
4.0365318681681765e-09
2.5376152218212805e-09
1.0719330866873296e-09
4.683097697069662e-10
6.930017766409198e-10
1.1598514538838007e-09
1.2001129118093141e-09
8.293858075234446e-10
2.2241728985870857e-10
5.788124278808215e-11
4.793951717403429e-10
1.451467088391062e-09
2.611871745552902e-09
3.539790640365473e-09
3.870495896834306e-09
3.1470105747401222e-09
1.8379993380351415e-09
7.109755180618647e-10
7.267226239076331e-10
1.6895355578712211e-09
2.7376758795882575e-09
3.137676747430127e-09
2.628262352542183e-09
2.2076571639761075e-09
2.1473475475283675e-09
2.309202997792964e-09
2.2097840688392976e-09
1.8297473395419096e-09
1.2680017902758013e-09
1.0026228349183967e-09
1.1255335754202707e-09
1.3110643671643916e-09
1.3735355804472863e-09
1.3711261294690228e-09
1.4902142221867632e-09
1.4469224580358385e-09
1.5622337767749425e-09
1.2999758189723034e-09
6.256366524253927e-10
7.638056862240872e-11
2.7260481087981354e-10
1.3870043943292844e-09
3.3088301928237525e-09
5.038358175157572e-09
6.0249884536870085e-09
6.08176282706745e-09
5.091433156259569e-09
4.243078581312088e-09
3.976483111596833e-09
3.728652362995913e-09
3.5746798000157233e-09
3.37610462844838e-09
3.0314076960832358e-09
2.928175426343701e-09
2.9130078627612435e-09
3.2319904364249978e-09
3.4089718309805483e-09
3.4690879840987566e-09
2.836165558716174e-09
2.3227945272846896e-09
1.744092987385531e-09
1.468257456179795e-09
1.377169494391834e-09
1.2424532665306137e-09
1.5953705943399427e-09
2.4736445668561963e-09
3.7994333309519775e-09
4.80337285954771e-09
5.6979185704829016e-09
7.007902807466835e-09
8.5858581615471e-09
1.1365004351334866e-08
1.3100431772975914e-08
1.218978642501439e-08
8.75080811422673e-09
3.832902090763598e-09
9.234005495058338e-10
1.960620470312966e-09
5.672599881686444e-09
8.560774528269585e-09
8.492335523415852e-09
5.194919055256367e-09
1.7981543832526298e-09
1.3289521199097117e-10
4.990134278255242e-10
1.318134369925905e-09
1.129720612823237e-09
2.9212600561491696e-10
9.480255702326016e-11
8.121912200522409e-10
1.4118339507881485e-09
1.142225223030335e-09
1.0581916514176585e-09
2.9918253492987078e-09
7.795475269882422e-09
1.189655136929075e-08
1.2787883704989114e-08
7.929963799542581e-09
2.288583459569783e-09
1.1393479466561862e-09
6.184361075119488e-09
1.2942440201856477e-08
1.598565838786122e-08
1.2799477962920581e-08
5.453723534983293e-09
7.768231935507209e-10
2.951466203959319e-10
2.1269870951525816e-09
2.601195472334505e-09
1.3091265160461152e-09
3.9580980322426776e-28
3.7255911407080125e-29
2.381452084884134e-30
1.180186306470318e-28
3.598681917933181e-10
6.63845845586682e-10
4.062110816472149e-10
5.6903958751646843e-11
3.0847632790768603e-10
1.0337912011269808e-09
1.2967338981405018e-09
7.606994877029848e-10
1.4096058889248844e-10
8.054660752496535e-11
4.857335017814174e-10
5.780239168852291e-10
3.068099895398779e-10
1.3351127195051337e-10
1.8296134241418928e-10
1.8307899166146552e-10
1.258618991088171e-10
5.755252255591535e-10
1.5428356337496397e-09
2.440039961241837e-09
2.241010776900786e-09
1.091441875291078e-09
2.414289315131375e-10
1.9289015298232408e-10
4.664832259295679e-10
3.695953811957089e-10
2.7436257268194464e-10
7.482655157122676e-10
1.463153529789619e-09
1.4967531206899644e-09
7.641519981610028e-10
4.2346080680305234e-10
1.1502730183005639e-09
2.181983244380591e-09
2.2272064265822256e-09
1.3704228174705996e-09
6.784060414624595e-10
6.372347012723319e-10
1.031542064920682e-09
1.5928068443012434e-09
2.6104033098141462e-09
4.060288610308399e-09
4.452522560322774e-09
3.1438065680812747e-09
9.221431362273984e-10
3.523865318199649e-11
1.4193858969303223e-09
3.2555126279925584e-09
3.42992356017702e-09
1.5635063365058505e-09
8.309743808456308e-11
6.177507353023124e-10
2.3276088070789947e-09
3.35367913283045e-09
2.7711534949680434e-09
1.7501830432232418e-09
1.3827084441746885e-09
1.9735844342560554e-09
3.2269966437188184e-09
4.350602846187991e-09
5.117326368411382e-09
4.602406764067345e-09
2.623529386651766e-09
7.697818292674119e-10
4.637013361389932e-10
1.9104881226646205e-09
3.2639536911682576e-09
2.9166157441416713e-09
1.3578531682257676e-09
1.0459273112673735e-10
3.9498556736651626e-10
1.3845946681319524e-09
1.624346013932636e-09
9.890375071975816e-10
3.539316337680776e-10
1.0104103485465476e-09
2.4706652735882565e-09
3.3896521656529096e-09
2.9672863220353227e-09
1.8240170741907944e-09
9.778458797837243e-10
8.478007277716896e-10
1.2553830931749307e-09
1.4414215901682064e-09
1.2408161794791562e-09
8.460833801846083e-10
4.5328226536596773e-10
2.83229171493111e-10
1.58773650579725e-10
1.0022396750388778e-10
6.058206580163708e-11
2.7677158352255487e-11
7.165775492815685e-11
3.002249032791326e-10
6.019794384140599e-10
6.952414490686165e-10
6.50844399291614e-10
4.528834597151029e-10
2.5816616685072e-10
2.65675883094329e-10
5.321423781850885e-10
7.389979950096816e-10
7.542619596611878e-10
5.558456490865838e-10
4.153349298270736e-10
3.8859685491053213e-10
4.774549779308993e-10
5.804952048254855e-10
6.091622441658442e-10
5.166458937949884e-10
3.864645992762675e-10
2.7821713305566963e-10
2.4163432933611164e-10
2.1656734679553435e-10
2.0605123945126678e-10
1.5927575901351513e-10
4.328206270319002e-11
1.1825920251446487e-11
7.648668563682158e-11
2.340422297510615e-10
3.4262539571522083e-10
3.338696559008148e-10
3.426493753558335e-10
4.0116818132529325e-10
4.842598017066551e-10
6.067823598468759e-10
6.599920336408646e-10
5.620764889717398e-10
3.981198752532747e-10
2.1474946528922626e-10
6.299292591784056e-11
9.424286942615626e-12
8.042200798608198e-13
5.971586696989304e-12
1.180486168482667e-11
1.2425568967730748e-11
1.4288799979566064e-11
4.103769875078864e-11
1.2471558411651123e-10
2.606002444673981e-10
4.6051240883285827e-10
6.529342131409575e-10
6.636338139402992e-10
5.59414205731585e-10
4.089756443276242e-10
2.2310625784173751e-10
9.126817378833532e-11
6.664600343523134e-11
9.185094264503544e-11
1.5388576155314087e-10
2.0706732881696586e-10
2.0440645074210878e-10
1.6200209476544302e-10
1.306732203328478e-10
1.4175600664558238e-10
1.080327062479141e-10
4.205314302856766e-11
1.22745473386425e-11
4.5558044140960744e-11
2.467699042784612e-10
5.950525627040582e-10
8.687750953612149e-10
1.0018287037222973e-09
7.829098174251052e-10
3.5198228550436883e-10
3.3348178886571936e-11
7.936982150341196e-11
4.348652368706407e-10
8.327463138653874e-10
9.927210454132605e-10
8.404708466534635e-10
6.481349457769159e-10
5.186777885723865e-10
5.01876423465836e-10
5.115471065156425e-10
3.811740079222182e-10
2.0357178372417988e-10
3.74746485027133e-11
2.5800424270300222e-11
2.65528147103105e-10
6.988487800135495e-10
1.056806514235849e-09
1.1750265121586014e-09
9.18634581046071e-10
4.707007535449012e-10
9.847348938882894e-11
3.810634117596085e-11
2.2777984198787292e-10
4.992149982984834e-10
6.278584114901761e-10
5.17389768130374e-10
3.2699098462370987e-10
1.1948128536417634e-10
5.5230247411522755e-11
9.23633423124603e-11
1.1291185782794694e-10
7.234079179598876e-11
1.1061224138600355e-11
3.898470583354573e-12
6.512560100192617e-11
1.574371079978101e-10
2.2464490882873874e-10
3.4055932816551996e-10
3.7701473971085115e-10
2.9439337792880604e-10
1.7656901689259027e-10
4.981720346907007e-11
1.3470120361129557e-11
3.2359750113099154e-11
5.422915233667093e-11
8.986404320140398e-11
1.9937965079434268e-10
3.4734850352098897e-10
3.935617295058274e-10
2.815652512736001e-10
1.3939002479728355e-10
1.2995146455334748e-10
2.970548410232251e-10
4.441293262513109e-10
3.858323876015181e-10
2.120087266446687e-10
4.181263377374926e-11
2.710202350454102e-11
1.3978878118890595e-10
2.4630064315823077e-10
3.389289384886516e-10
3.7838628448515417e-10
3.319895973360359e-10
2.3848906337902833e-10
1.1193823370468539e-10
8.093195035447781e-11
1.6739798976405206e-10
2.3214680776032839e-10
2.1945963148171182e-10
1.572251654844795e-10
1.6773102102099773e-10
2.3433800086576846e-10
2.839473929976118e-10
3.289942702098603e-10
2.5122249087410245e-10
2.1227338013028727e-10
2.1116973990030288e-10
1.447387954297944e-10
6.159969310671156e-11
6.557911251364718e-12
1.001792035420569e-10
3.0002714490866473e-10
5.609941658339521e-10
6.761519116692537e-10
6.414415098156874e-10
5.625228389136369e-10
4.0217780636628864e-10
2.3110336127347649e-10
1.0656439408489991e-10
4.5048311336762646e-11
1.1752014594926888e-10
2.777293802904082e-10
5.025650334519393e-10
6.867977383873153e-10
7.11986421309282e-10
6.438860553780521e-10
4.4473609808814066e-10
2.0847639510470644e-10
5.8100526001852973e-11
1.5823173920091933e-11
8.959188167021694e-11
2.3351352150845144e-10
3.618540771401456e-10
4.748456062166523e-10
5.291062618919014e-10
5.104840372869872e-10
4.357088992009731e-10
2.9979222371106565e-10
1.562378203377438e-10
4.388251103623611e-11
7.007577389766732e-31
1.190847950541493e-10
4.1948092972935544e-10
1.2941890401218281e-09
3.943832045208989e-09
7.0489617057432185e-09
1.3409377931344448e-08
2.244387565544478e-08
3.114134813542373e-08
3.591969634322088e-08
3.427571448983038e-08
2.5482192106554258e-08
1.6019692321743372e-08
6.766998436391425e-09
2.9563892734642723e-09
4.374845778329321e-09
7.3220176449011685e-09
7.57618390416905e-09
5.235823515832452e-09
1.4040964603038868e-09
3.6539806850611133e-10
3.026370225781411e-09
9.162955822149107e-09
1.6488465779923143e-08
2.234631809204821e-08
2.443402485399442e-08
1.9866739727556725e-08
1.1603092395449326e-08
4.4883120773009435e-09
4.587721865056743e-09
1.066585649825842e-08
1.7282653765051697e-08
1.9807816278325883e-08
1.659193792127737e-08
1.3936702544449245e-08
1.3555974413869338e-08
1.457775048596238e-08
1.3950129466392705e-08
1.1550998415335909e-08
8.004759101759799e-09
6.329450261816724e-09
7.105372564357333e-09
8.27660852416416e-09
8.670982583380163e-09
8.655771978161459e-09
9.407562315844026e-09
9.134266058870305e-09
9.862214028101482e-09
8.206607710485013e-09
3.949576985066711e-09
4.821823254246578e-10
1.7209248897030833e-09
8.75600975868753e-09
2.0888289594940187e-08
3.180661397311288e-08
3.803510494425929e-08
3.839351546508746e-08
3.214167062785115e-08
2.6786099320768572e-08
2.5103110756354217e-08
2.3538581860754112e-08
2.256656960936062e-08
2.1312985880869616e-08
1.9136951171882002e-08
1.8485256941534648e-08
1.8389505741836583e-08
2.040320846640634e-08
2.1520473000080646e-08
2.1899979817441756e-08
1.7904408530285202e-08
1.466355235173267e-08
1.1010271690588952e-08
9.268951610490638e-09
8.69392309178142e-09
7.843474015607566e-09
1.0071403198054548e-08
1.5615852448247677e-08
2.3985414508643684e-08
3.032317691621503e-08
3.597034790324588e-08
4.424013768160112e-08
5.420160033852471e-08
7.174605171740317e-08
8.270161862224419e-08
7.695281235598117e-08
5.5242911671973136e-08
2.4196699194344667e-08
5.829328483533989e-09
1.237718643237928e-08
3.581051374043765e-08
5.404325005595946e-08
5.36112019695769e-08
3.279496599245645e-08
1.1351555475785242e-08
8.389531985862891e-10
3.1502181691856194e-09
8.321240692185292e-09
7.13180488173877e-09
1.8441600952299275e-09
5.984783594327442e-10
5.127275932054053e-09
8.912756081587845e-09
7.210745142814786e-09
6.680250231546841e-09
1.8887072068301602e-08
4.921199804107688e-08
7.51016509465416e-08
8.072853624086159e-08
5.006100968296528e-08
1.4447581555972002e-08
7.19258120612252e-09
3.904120718462401e-08
8.170423480416252e-08
1.0091574433031539e-07
8.080172954580546e-08
3.442877087393041e-08
4.904001379746251e-09
1.8632289118882857e-09
1.3427441065004298e-08
1.6421067613869096e-08
8.264375078205451e-09
2.4987047725193385e-27
2.3519256693266566e-28
1.5033851212256388e-29
7.4503893850463145e-28
2.271809240162693e-09
4.190787517318564e-09
2.5643669259678098e-09
3.5922857935739465e-10
1.947377923622174e-09
6.526212809794578e-09
8.186141812499247e-09
4.802214156629878e-09
8.898690566368528e-10
5.084820815285289e-10
3.0663834225097953e-09
3.6490028998425038e-09
1.936858508493097e-09
8.428423189378479e-10
1.1550153021799894e-09
1.1557580092409511e-09
7.945526498325669e-10
3.6332289298936588e-09
9.739755634801222e-09
1.5403710182585665e-08
1.4147260320221257e-08
6.890155323343605e-09
1.524114911965208e-09
1.2176948168103588e-09
2.944858498792643e-09
2.333215942030514e-09
1.7320214511529481e-09
4.723719827026391e-09
9.236731071419013e-09
9.448841679730098e-09
4.824009484305819e-09
2.67326258802678e-09
7.261550009915526e-09
1.3774625847763074e-08
1.4060114939430945e-08
8.651332045060471e-09
4.282704469923722e-09
4.022794221652789e-09
6.512014254511347e-09
1.0055218519441075e-08
1.6479195702833904e-08
2.5632165867895508e-08
2.8108296663194975e-08
1.9846513177672337e-08
5.821390568570131e-09
2.2245783243806704e-10
8.960430706403965e-09
2.055170153517623e-08
2.1652739016003696e-08
9.870247560992868e-09
5.24585200858152e-10
3.899794037321055e-09
1.469394438295646e-08
2.1171416135830013e-08
1.7493994355003276e-08
1.1048717558939447e-08
8.728889886803728e-09
1.2459026544249915e-08
2.0371683189451952e-08
2.7464888455394488e-08
3.230513169489028e-08
2.9054499541878135e-08
1.656205921599463e-08
4.859550003361865e-09
2.9272967273566957e-09
1.2060706306555966e-08
2.0604989060322002e-08
1.8412281909456794e-08
8.571981199525297e-09
6.602826769531289e-10
2.4935014600832454e-09
8.740797416040405e-09
1.0254321909597901e-08
6.243687547160043e-09
2.2343323870146123e-09
6.378611998868737e-09
1.5597044489862885e-08
2.139851002805619e-08
1.8732159825005643e-08
1.1514823865681004e-08
6.173036005425951e-09
5.35207492935235e-09
7.925098622377846e-09
9.099539670888289e-09
7.833139260896632e-09
5.34123349850107e-09
2.8615222527133176e-09
1.7879953370572414e-09
1.0023210017087138e-09
6.327031414653784e-10
3.8244807408638244e-10
1.7472292778299266e-10
4.5236770986582985e-10
1.8952875662548307e-09
3.800231534112493e-09
4.3889845897947755e-09
4.108710783385998e-09
2.8590046354764364e-09
1.629775280849758e-09
1.6771833128522896e-09
3.3593576743158025e-09
4.6652149642859086e-09
4.761574733578119e-09
3.508993877470496e-09
2.6219647995046543e-09
2.4531702045812767e-09
3.014121990665005e-09
3.664603875160162e-09
3.845575815294669e-09
3.2615300328895627e-09
2.43970950379477e-09
1.7563548767612406e-09
1.525411566359187e-09
1.3671663981077326e-09
1.3007793420131199e-09
1.0054907583181086e-09
2.7323501277623587e-10
7.465576428631195e-11
4.828522307382678e-10
1.4774834571712045e-09
2.16295732062722e-09
2.107683275661746e-09
2.163108701522676e-09
2.532531637910061e-09
3.057080112232802e-09
3.830551861220241e-09
4.166458816455262e-09
3.548328500390438e-09
2.5132880091060106e-09
1.3556903074230539e-09
3.9766757504154446e-10
5.949451117501166e-11
5.076954980232051e-12
3.7697985390285374e-11
7.45228238172111e-11
7.844128222196953e-11
9.020365946390214e-11
2.5906658421925514e-10
7.873160864156114e-10
1.6451413513915467e-09
2.907165371806258e-09
4.1219035537431076e-09
4.189448984309969e-09
3.531521792259958e-09
2.581819313218445e-09
1.4084458411764271e-09
5.761661777104153e-10
4.2072906101973653e-10
5.798451349056398e-10
9.714642833081576e-10
1.3071938050372707e-09
1.2903959675643816e-09
1.0227018230753213e-09
8.249260039200031e-10
8.948904434736923e-10
6.819988703940527e-10
2.6547697487265747e-10
7.748789889926635e-11
2.8760303912221503e-10
1.557831899341211e-09
3.756502911793802e-09
5.484483859019074e-09
6.324436996875997e-09
4.9424255824809066e-09
2.222026360811741e-09
2.1052347127312646e-10
5.010531577769272e-10
2.7452575300560453e-09
5.257038031406077e-09
6.266941328254645e-09
5.305802177179675e-09
4.0916062943790395e-09
3.2743571663667625e-09
3.1682919531391076e-09
3.2293419364725978e-09
2.406310568856511e-09
1.2851268043345316e-09
2.365734307221255e-10
1.628753071098021e-10
1.676250671408502e-09
4.41175728257483e-09
6.671506009300229e-09
7.41781615778696e-09
5.799241436575889e-09
2.971483297609701e-09
6.216525611496357e-10
2.405612387161454e-10
1.4379496758859037e-09
3.151490661930061e-09
3.963602711396227e-09
3.266226031666858e-09
2.0642589627501336e-09
7.542725206254016e-10
3.4866261944604247e-10
5.830798589675556e-10
7.12800430233048e-10
4.5667964824521146e-10
6.982831986444405e-11
2.4610626045143604e-11
4.111309237697173e-10
9.938835519515283e-10
1.4181591795857919e-09
2.149914458109084e-09
2.3800535553988567e-09
1.8584737731015757e-09
1.114661237782887e-09
3.144906544702286e-10
8.503542296978847e-11
2.0428362659658494e-10
3.4234281376942424e-10
5.673020521374117e-10
1.2586623194392841e-09
2.1927737928804586e-09
2.484512924607833e-09
1.7774911874386228e-09
8.799542542032901e-10
8.203696372101848e-10
1.8752753037401215e-09
2.803740731229844e-09
2.4357184194000165e-09
1.3383883187517325e-09
2.639586657808806e-10
1.7109216326650073e-10
8.824715604718637e-10
1.554869504294079e-09
2.1396219832045426e-09
2.3887119702368867e-09
2.095814667885583e-09
1.5055558402155033e-09
7.066540457230737e-10
5.109147094202976e-10
1.0567655286106745e-09
1.4655178617372293e-09
1.3854250806617402e-09
9.925455816303163e-10
1.0588679191637882e-09
1.479350628448599e-09
1.7925293922686154e-09
2.0769054894759955e-09
1.5859406002524917e-09
1.340059047779139e-09
1.3330918855528824e-09
9.137204686772491e-10
3.8887224595661493e-10
4.1399389323004565e-11
6.324205513825852e-10
1.894039138903946e-09
3.5414959106774795e-09
4.2684743906627244e-09
4.04935135211982e-09
3.5511462596297155e-09
2.5389052923467124e-09
1.458930696145759e-09
6.727295734251924e-10
2.8438515068139297e-10
7.418920581515382e-10
1.7532757459452777e-09
3.1726390740155103e-09
4.335680351230514e-09
4.494693800917439e-09
4.0647835056783335e-09
2.807571216660387e-09
1.316089089159323e-09
3.66782379880714e-10
9.988999733828004e-11
5.65583925624795e-10
1.4741457788259018e-09
2.2843459210467254e-09
2.9976493073141796e-09
3.340190998276172e-09
3.2226308946198667e-09
2.7505834797268836e-09
1.8925561066171628e-09
9.863125777729703e-10
2.770255786066214e-10
4.0976483104401944e-11
4.3867434327524526e-10
1.627799124244779e-09
4.651275112426688e-09
1.2205066095756498e-08
2.0402240974336818e-08
3.9377161627292276e-08
6.847553209927216e-08
9.802681640570392e-08
1.1320439231806843e-07
1.0888633365514186e-07
7.950100918951736e-08
5.0213801330112286e-08
1.840542589354984e-08
5.658881986132176e-09
1.051019888206635e-08
2.1591101791843497e-08
2.4505341274659648e-08
1.7016164947778286e-08
5.661337802499151e-09
2.649164278404627e-09
9.860585062860647e-09
2.6965807293289882e-08
4.9014743009766806e-08
6.67232658006912e-08
7.46897687156784e-08
6.434848379682566e-08
3.493435497749209e-08
1.1137835937093494e-08
1.1989284001285343e-08
3.365398246972343e-08
5.7599264275375285e-08
6.16190388872411e-08
4.7152814880599426e-08
3.616728948897256e-08
3.546866573251446e-08
4.136238424681621e-08
4.1843921188560624e-08
3.538445216661856e-08
2.5613603119299366e-08
2.3303138027553943e-08
2.881936418561349e-08
3.3989484267221725e-08
3.410442961239855e-08
3.380163710231745e-08
3.538836988558621e-08
3.4740622574533804e-08
3.869359230382005e-08
3.426639247666426e-08
1.8115910093672897e-08
4.53088458310537e-09
5.71833234379949e-09
2.9071438327851554e-08
7.1280112571872e-08
1.0735762106886025e-07
1.272160439157774e-07
1.2693561608274805e-07
1.1093044190975155e-07
9.385286034003747e-08
9.151092753948163e-08
8.77169904204126e-08
8.515962459514057e-08
7.99840358704011e-08
7.129043922729981e-08
6.604990658874824e-08
6.460578586993511e-08
7.077933015312669e-08
7.241785745131573e-08
7.416662478154827e-08
6.01694765783652e-08
4.8753063209183386e-08
3.725830213736206e-08
2.715307948758197e-08
2.2170874775734257e-08
1.6129039734618633e-08
2.0506510920269562e-08
3.807432757210607e-08
6.588857930517215e-08
9.065445787683367e-08
1.0828408819659858e-07
1.320204830403844e-07
1.607454716801837e-07
2.1867214319837306e-07
2.6126091969566053e-07
2.5158197495651587e-07
1.87274367152007e-07
8.8961422348905e-08
2.7057554105254534e-08
4.843564018035524e-08
1.2691169631255391e-07
1.8902903302906634e-07
1.8320852306018762e-07
1.1033866839338115e-07
3.698316542009894e-08
5.121169442661443e-09
1.8919326208440876e-08
3.9351913511717104e-08
3.2716517610675705e-08
8.42690638940532e-09
3.279300743420475e-09
2.4218385599233656e-08
4.246423829014961e-08
3.178256631882361e-08
1.8215148986208258e-08
4.925812425873068e-08
1.5332925996919722e-07
2.5370543696351123e-07
2.8656773123763015e-07
1.8071860385383794e-07
5.210634791957283e-08
1.8040518288592792e-08
1.2605193756453487e-07
2.7474600764188963e-07
3.3960066833906134e-07
2.6465736128113267e-07
1.0481288991497498e-07
9.95991449514751e-09
1.408911389626896e-08
6.445799508815915e-08
7.353405493328834e-08
3.537915327045295e-08
8.190339659994636e-27
7.889835566076248e-28
4.473036321625193e-29
2.4240958796056224e-27
9.956540267502057e-09
1.7579025688741722e-08
1.0454280165771675e-08
7.715673593398607e-10
8.658032101089383e-09
2.9959934299999294e-08
3.699987287766743e-08
2.1790243963416945e-08
3.4531263772629715e-09
2.0688634054149014e-09
1.4212866203939142e-08
1.686452994657131e-08
8.71295544324471e-09
3.3243587696411227e-09
5.4104272586927474e-09
6.326994615641488e-09
2.6554225728459058e-09
9.053916423628184e-09
3.124857735228431e-08
5.312335428992146e-08
4.901510486210643e-08
2.3003597555736774e-08
5.476864189761139e-09
9.121117663139944e-09
1.801667176432445e-08
1.3721984964274598e-08
5.996941786972946e-09
1.4646646513899662e-08
3.331937396750693e-08
3.7392160699848115e-08
2.02749792485448e-08
7.37482991050463e-09
2.0250924786700398e-08
4.152755746607318e-08
4.342790316625446e-08
2.7576533684418734e-08
1.679671470766835e-08
2.078408747100124e-08
2.9544136544915158e-08
3.8301487773927763e-08
5.7191118323273774e-08
9.280396647389726e-08
1.1058426287121384e-07
8.609438211708654e-08
3.137963187339972e-08
1.2395895563436853e-09
2.6444567314846303e-08
6.916213425026339e-08
7.685926722932648e-08
3.597270919703156e-08
2.2165832698134204e-09
1.2406349066767851e-08
4.8717814241703777e-08
7.004960962259395e-08
5.78834675138479e-08
4.022049734854837e-08
3.8022081113666684e-08
5.304541916848054e-08
7.914802446107742e-08
1.0439055537144548e-07
1.2641291961464798e-07
1.1981781681463583e-07
7.516883176006815e-08
2.8009912947731965e-08
1.4431542740039922e-08
4.5188939208336044e-08
7.783837151260913e-08
7.172768380877576e-08
3.520316391915589e-08
3.5328094145517524e-09
7.023575292108043e-09
2.807375402858792e-08
3.3927381657629514e-08
1.9564119071584714e-08
6.96965698581026e-09
2.406197741248306e-08
5.872360617751792e-08
7.873279137496038e-08
6.837523522412597e-08
4.429306542279807e-08
2.6340146204942133e-08
2.5289469915897212e-08
3.431364152278681e-08
3.844352441191225e-08
3.386115951468373e-08
2.2592964601907834e-08
1.2796891145828278e-08
8.095603619328643e-09
4.688298289072028e-09
2.738612557069431e-09
1.5310052237487169e-09
8.827067630077072e-10
1.8117555529034066e-09
6.648388994318582e-09
1.2639592154333885e-08
1.5024183294920717e-08
1.408761998801788e-08
9.47923177943586e-09
5.839936972850544e-09
7.2259922197625886e-09
1.4152272615298468e-08
1.963673364492387e-08
2.0624041447376753e-08
1.521947387689069e-08
1.1437783652307391e-08
1.0646585230351576e-08
1.3077410423161713e-08
1.5291940461166634e-08
1.5533641745539034e-08
1.3046565311285958e-08
9.594435210240871e-09
6.672253102655777e-09
5.465255709116501e-09
3.964288324478577e-09
3.4991917911215648e-09
2.465757084611993e-09
5.114522535362173e-10
6.189779589229264e-10
3.318094787604883e-09
7.63566102176641e-09
9.622391742214718e-09
9.253206118398912e-09
9.480943914596404e-09
1.02467668144915e-08
1.2221516943520445e-08
1.5189253757490834e-08
1.567229895094736e-08
1.3742627283615888e-08
9.968276568970823e-09
4.8302794626355435e-09
1.4328150160966027e-09
2.775289431115398e-10
1.739792394260366e-10
3.930561315988198e-10
6.239723359719009e-10
5.097687355457757e-10
3.6845326561085714e-10
9.692930355689713e-10
2.72020289507465e-09
5.526460919858156e-09
1.0272650565952602e-08
1.4212389101730914e-08
1.4470519354150973e-08
1.2997424844961543e-08
9.193407607860209e-09
5.1447797393863984e-09
3.104131285958965e-09
2.7893951609800273e-09
3.3957374286146127e-09
4.560717413192741e-09
5.147682601830941e-09
4.691205230814723e-09
3.497749342298073e-09
3.04910359533883e-09
3.5492758293094822e-09
2.7600458026525934e-09
1.4613030195461255e-09
6.073254459103654e-10
6.311545349702054e-10
3.877618045722351e-09
1.0431503788756355e-08
1.658185704345612e-08
1.9467524937952233e-08
1.5267000168751843e-08
7.0246542023651805e-09
6.042458041299135e-10
1.696584667164534e-09
9.446405708003367e-09
1.7930626029869962e-08
2.0168873860524693e-08
1.6849016789748383e-08
1.2064980968525736e-08
9.249022286863538e-09
1.026558011267191e-08
1.1707355286713561e-08
9.045450470544883e-09
5.659025961827018e-09
1.51628048525284e-09
2.892373598234359e-10
4.2638119073119505e-09
1.241517854237521e-08
1.975983567145341e-08
2.2671565615062787e-08
1.7998615033729842e-08
8.975844697600186e-09
1.7182133246516313e-09
7.979378457999506e-10
4.7449568277466585e-09
9.93314749183695e-09
1.1993656367539106e-08
9.950946519133355e-09
5.482100297234685e-09
1.7021693187215332e-09
1.345969518518453e-09
2.5531354197758332e-09
3.0620662539694665e-09
2.0340987689315684e-09
2.6984080188457403e-10
1.3220300640362134e-10
1.3449413342247131e-09
3.4191451517762416e-09
4.549646720237103e-09
6.574149355697572e-09
7.271795382522162e-09
5.792372345268051e-09
3.7199004800497835e-09
9.083581005346138e-10
4.075378009764889e-10
1.2105039059451527e-09
1.6752313820721525e-09
1.9202157627982647e-09
3.4605614738341836e-09
6.892054554830066e-09
8.212390458211494e-09
5.783925543454972e-09
2.714320636185938e-09
1.7576836560440756e-09
5.61512422348197e-09
9.431235180562347e-09
8.534364329150358e-09
4.747848557374929e-09
8.230675070802297e-10
2.5548902950830594e-10
2.7609201090458748e-09
5.228719123938673e-09
7.342344179869767e-09
8.343213525080354e-09
7.259781878072467e-09
4.891670150769519e-09
1.8882703858460756e-09
8.575310270818494e-10
3.016538429355274e-09
4.558802278105396e-09
4.586109344729514e-09
2.8539641734538237e-09
2.1273521051796403e-09
3.2416186562198657e-09
4.388047987564188e-09
5.9512443799003e-09
4.804240920861436e-09
4.3397218880288504e-09
4.850853236238014e-09
3.6514058299783454e-09
1.8924379978271404e-09
2.3501305479718535e-10
1.7107373947262306e-09
5.459629712056011e-09
1.1024396041891163e-08
1.2995061692756429e-08
1.2248378020874035e-08
1.04103585254794e-08
7.032355755125217e-09
4.173013447699697e-09
1.9291856507601276e-09
1.09847516346755e-09
2.265547442085869e-09
5.109716789279232e-09
9.228377912702976e-09
1.2653324834437218e-08
1.3074143442951111e-08
1.177884927668732e-08
7.981132459318045e-09
3.5151229688693727e-09
9.314028230327029e-10
1.7701303799845746e-10
1.5636590585865025e-09
4.03959066719141e-09
6.237463565283282e-09
8.267541530261529e-09
8.90101644250878e-09
8.823667356591742e-09
7.75573109714475e-09
5.3194416469031744e-09
2.774805057082724e-09
8.439213668506733e-10
1.3750803224792433e-10
8.145138030800603e-10
3.5965292637861572e-09
8.842813473004774e-09
1.8390349923464777e-08
2.1781485998692364e-08
4.235742377732577e-08
8.219387132278692e-08
1.2453270250887714e-07
1.5126658328646945e-07
1.5124762879151386e-07
1.13385872482763e-07
6.997092828534755e-08
2.289196632073783e-08
1.6639324832163931e-09
1.1175995513615306e-08
3.265159051210223e-08
4.079980091862571e-08
3.0728176563930534e-08
1.260695537607185e-08
6.974754183394465e-09
1.4185940663465027e-08
3.27491491629084e-08
5.852728284803669e-08
8.266006539305287e-08
9.970570345368145e-08
8.744690308156628e-08
4.516274963923302e-08
1.0260284303657705e-08
1.397288726924815e-08
5.176196010691465e-08
8.888302182242922e-08
8.892084852678102e-08
5.5851207380621585e-08
3.410877626865704e-08
3.5425470075768036e-08
4.9331712897868664e-08
5.342847450030489e-08
4.688214143473222e-08
3.642877965099032e-08
3.977525499517681e-08
5.559089188762677e-08
6.742215372476208e-08
6.620476912424765e-08
5.965089672195173e-08
5.758286891159982e-08
5.733582622363415e-08
6.966301308851512e-08
6.871561885364332e-08
4.6087374033872994e-08
1.976447590057679e-08
1.2342573233692916e-08
4.1704762928967674e-08
1.0720125202419711e-07
1.6437669531833184e-07
1.9458627575218356e-07
1.945479189972335e-07
1.7352456639521454e-07
1.517420483145023e-07
1.5448638660974145e-07
1.5326560024627062e-07
1.5197610134300587e-07
1.442632174984637e-07
1.2416323794626205e-07
1.0829329732208308e-07
9.917371644838878e-08
1.0692078214603713e-07
1.058543559887834e-07
1.0681511474482705e-07
8.407222143964272e-08
6.646766303049213e-08
5.266980351951072e-08
3.730888279730637e-08
2.5826224518479148e-08
1.238872132337779e-08
1.1430641256513085e-08
3.337103820526838e-08
7.589114974870615e-08
1.1075329559653007e-07
1.3381698585206785e-07
1.5985056882969631e-07
1.9811010927568587e-07
2.885557951018686e-07
3.704480410894131e-07
3.747926750718393e-07
2.927118743709145e-07
1.4991892611779854e-07
5.423008157406372e-08
8.717590709157932e-08
2.08656872023929e-07
2.973008848309034e-07
2.8106580999633236e-07
1.6206290794809125e-07
5.211954892722803e-08
1.9932589446296563e-08
5.5638127106244205e-08
9.218936822246516e-08
7.019775342510623e-08
1.7383254137154803e-08
8.741708276858922e-09
5.573778437858108e-08
9.60277556612528e-08
7.253802037819145e-08
2.5751446739567813e-08
4.9144545378020096e-08
2.0977300898863815e-07
3.897134650047105e-07
4.6653030119463977e-07
3.039626682451852e-07
8.745815524114751e-08
1.7292912062271645e-08
1.796297901003749e-07
4.125859032665768e-07
5.09368737681721e-07
3.795524202314132e-07
1.2543100451000507e-07
3.1531224911022493e-09
5.333798281658099e-08
1.6173109710281012e-07
1.6871150083466533e-07
7.74601112633269e-08
1.7827739852380152e-26
1.754423380032423e-27
9.873705932149654e-29
5.435155872386463e-27
2.2104355773147158e-08
4.007572626243244e-08
2.3761265110865815e-08
1.9429638929577975e-09
1.7927597528283855e-08
6.239481585216265e-08
7.789430642805216e-08