# vtk DataFile Version 4.1 
COMMENT
ASCII
DATASET STRUCTURED_POINTS 
DIMENSIONS 400 400 1 
ORIGIN 0 0 0
SPACING 0.002506265664160401 0.002506265664160401 0 
POINT_DATA 160000
SCALARS U double 1
LOOKUP_TABLE default
5.659816498888423e-07
1.5751531385415953e-07
4.6365909711151593e-07
5.544583972977378e-07
3.071829575314907e-07
4.924301322185717e-08
1.2103168970558e-07
4.1115124822466294e-07
5.335290732708358e-07
3.369195923232278e-07
8.06419534705993e-08
8.159830701643972e-08
3.2174160938823054e-07
4.782531789229764e-07
3.4592344314106806e-07
9.704444178122937e-08
4.2856332821126084e-08
2.3108205821443558e-07
3.9786769023577584e-07
3.1568700013267417e-07
9.632002724571271e-08
2.8911099011104028e-08
1.7668023296734451e-07
3.274296988107226e-07
2.8190548425401024e-07
1.03292686837221e-07
2.4983675466988034e-08
1.4263434849428398e-07
2.915356506710363e-07
2.7176342310246676e-07
1.2214534376862714e-07
2.592065163745847e-08
8.221415430007577e-08
1.8580493862200287e-07
1.9320309102642e-07
9.998435998345983e-08
2.0202066233409298e-08
2.3818801603789277e-08
7.715576067257339e-08
1.034131424688017e-07
6.328448437423127e-08
1.1387048948874968e-08
8.492565202681037e-09
4.406051169444435e-08
6.474229247704788e-08
4.497165556231658e-08
1.2307999018615115e-08
1.017677385327591e-08
3.020357041813957e-08
4.294365756415162e-08
3.2270477096909814e-08
1.3788596016700987e-08
4.718982882030435e-09
1.067114794960563e-08
1.8367102425110227e-08
1.8508712211027467e-08
1.0938782219743312e-08
4.63792695250768e-09
5.478037876636384e-09
1.0855084973337379e-08
1.2131878344816083e-08
9.150393724530862e-09
3.6774586555682588e-09
2.1964115970860457e-09
2.937409981133679e-09
3.709844337818974e-09
2.3774464188072635e-09
4.909441029643337e-10
2.1130101888329524e-10
1.8587177303567835e-09
3.1332617981172854e-09
4.326601572505839e-09
4.500095082695958e-09
5.230844343877574e-09
5.839928625208101e-09
6.4463452333009484e-09
6.765474793924322e-09
4.805531563566039e-09
2.777214746619364e-09
1.2459608196999425e-09
6.696878946080748e-10
3.520154763593831e-10
2.674746559766949e-10
6.86571305303014e-10
1.254474613470907e-09
1.637540144480081e-09
2.604914700542478e-09
2.7113886963752392e-09
2.50466838745809e-09
2.5412095093641312e-09
2.26970539187327e-09
2.0507289040365372e-09
1.3404692482544677e-09
8.605926160403264e-10
5.564547447788106e-10
1.322726018144578e-10
1.0080074395820089e-10
2.0394301367561263e-10
1.9959248764456808e-10
1.8677495953328292e-10
1.7650084990978564e-10
4.527895506651095e-11
1.974134329923365e-11
3.196247799594041e-11
2.63231623588754e-10
3.5400860577086113e-10
2.9317105020706637e-10
4.3990195773609367e-10
2.903861729341387e-10
2.5438484197873783e-10
1.6247786103654116e-10
3.773641788093458e-10
8.262955708947043e-10
8.290105575266339e-10
1.2550903520662785e-09
1.823278753287631e-09
1.4098310292966385e-09
1.2260397052298349e-09
7.840273400065188e-10
1.9588359113607598e-10
8.306566810918867e-29
7.574547963713723e-30
5.92491516961995e-31
1.4628858740134507e-31
1.8022610369664125e-13
3.702706780214047e-13
6.005081769199662e-13
9.180460113673874e-13
1.323276981984873e-12
1.637700679914956e-12
2.3085136656653338e-12
2.8508612518199162e-12
3.4114618937798962e-12
4.344488623875176e-12
4.9111723868861004e-12
6.416918439991451e-12
6.644155640808872e-12
9.402556253170661e-12
8.245863698104078e-12
1.2464094925204924e-11
1.0727127323594688e-11
1.5285259618004106e-11
1.4007675757402129e-11
1.8191616861340503e-11
2.002404182464916e-11
2.1374712270404395e-11
3.017188917984395e-11
2.864994334594587e-11
4.3803259106677594e-11
4.423506530576647e-11
6.084602408524112e-11
7.2758737453003e-11
8.114388342993872e-11
1.1166470689981417e-10
1.1734283651050332e-10
1.4427536797083116e-10
1.7395889659536557e-10
1.8588872131142326e-10
2.208399597661011e-10
2.507095080021916e-10
2.6226986962466685e-10
3.0133204994848745e-10
3.293392619407919e-10
3.312266901461791e-10
3.7371369151680713e-10
3.8491196769010854e-10
3.792655680917153e-10
4.063611745759259e-10
3.9347639204576357e-10
3.882197638787377e-10
3.7696425301028496e-10
3.4090887284514954e-10
3.3391228541602985e-10
2.8564875747773683e-10
2.3624711141872465e-10
2.2621265170520937e-10
1.7224501344383718e-10
1.2838330973308553e-10
1.2494937836097496e-10
1.048395387281991e-10
9.235742388784694e-11
1.208828989500174e-10
1.6852457388200676e-10
2.042450977200834e-10
2.722858683103108e-10
4.041461451235263e-10
5.220288478415711e-10
6.26039718579909e-10
7.81049622321258e-10
9.495687486786605e-10
1.0841398501049582e-09
1.1816794547561231e-09
1.2507546322506538e-09
1.3054133176387388e-09
1.3353165648871922e-09
1.345820854121078e-09
1.3119392779050007e-09
1.149921613399682e-09
9.178445788794716e-10
7.425963529114119e-10
5.703762187908653e-10
3.548272114909896e-10
1.9751423311879855e-10
1.2775705956668556e-10
1.0398835852458582e-10
1.4555597335435645e-10
2.5324919580743034e-10
3.9456053964297593e-10
5.833432350556972e-10
8.488369466091342e-10
1.1751841084870358e-09
1.4699000369875522e-09
1.6304926431808548e-09
1.711022501969143e-09
1.845416577304608e-09
1.9685915928007123e-09
1.89364993281221e-09
1.6390790878282644e-09
1.3893924253586205e-09
1.2066879008806496e-09
1.0166766279976184e-09
7.963263458969715e-10
6.098292017316416e-10
5.094858067707501e-10
4.901525490817601e-10
5.180815661356163e-10
5.699956544790107e-10
6.570339213244501e-10
8.177454650776922e-10
1.0779496149040274e-09
1.4163615987656517e-09
1.7632976159479574e-09
2.0322262595222747e-09
2.1897486233933627e-09
2.3041857905894242e-09
2.457157471722858e-09
2.5880373773532925e-09
2.5192598329480677e-09
2.172237953033796e-09
1.6684113940483607e-09
1.1777531769641031e-09
7.5255869924746e-10
3.712579621135027e-10
8.883450685341935e-11
4.108254895962773e-11
2.7876724974427506e-10
7.105777580265308e-10
1.3068398422063183e-09
2.2331711340803206e-09
3.5751746903377893e-09
5.0045617317378175e-09
5.998501763815138e-09
6.41514169478764e-09
6.588610176680672e-09
6.779858180908464e-09
6.785065923410165e-09
6.236376179127403e-09
5.1150972341759325e-09
3.791879048156047e-09
2.64203389997609e-09
1.7720134254724972e-09
1.1094422222957046e-09
6.438989305134454e-10
5.11298916356926e-10
8.473892282176895e-10
1.6140123380332091e-09
2.6488144149912836e-09
3.891925576993568e-09
5.444874183275688e-09
7.305205392770441e-09
9.105635138786358e-09
1.024210576148291e-08
1.0287164603808873e-08
9.26709109245385e-09
7.611350031834926e-09
5.900664053130172e-09
4.567771709970633e-09
3.673646424691474e-09
2.935841860043655e-09
2.0510202814329517e-09
1.0316989343324896e-09
2.348725794900828e-10
1.0622044694229599e-10
9.004127137199475e-10
2.5156542962337634e-09
4.452895964276064e-09
5.978081451661066e-09
6.516694382715211e-09
6.022745802065156e-09
4.969240581026484e-09
3.956871860103475e-09
3.311731442300662e-09
2.9821465050783077e-09
2.7110834493903054e-09
2.2817058733644256e-09
1.6800781934308342e-09
1.1019512646773068e-09
8.064968040135011e-10
9.317709763322448e-10
1.4279189814737413e-09
2.135584392079802e-09
2.888379081967643e-09
3.547235081181322e-09
4.004109610826123e-09
4.208441575264621e-09
4.1795355360130385e-09
3.959891999544633e-09
3.5622012512806435e-09
2.9889663111155595e-09
2.297788468817638e-09
1.613027900647568e-09
1.0610186725394376e-09
7.098887154228593e-10
5.723403457093664e-10
6.335384323742715e-10
8.511343728861008e-10
1.146569462772287e-09
1.4341494655882917e-09
1.6714495999069882e-09
1.8679185200531496e-09
2.0375785714086513e-09
2.1553830758846153e-09
2.1688776970308043e-09
2.044054858282622e-09
1.7900580350372001e-09
1.4472888694663645e-09
1.068561932425923e-09
7.136482076395025e-10
4.432999331851818e-10
2.981420416011546e-10
2.7788321875256976e-10
3.4613014916945625e-10
4.5814597331087607e-10
5.82704672243952e-10
7.003822237646676e-10
7.91444042036519e-10
8.351486878324003e-10
8.213620855193828e-10
7.569714609229716e-10
6.57736774832787e-10
5.365684349729447e-10
4.030166285329414e-10
2.7226405656847203e-10
1.6840316935695366e-10
1.1375144318144892e-10
1.1361430634021544e-10
1.5211894641010466e-10
2.0307755458102752e-10
2.450715509079179e-10
2.6819672398959113e-10
2.7061384281828676e-10
2.5271928660767174e-10
2.1594601873110956e-10
1.6554167712387977e-10
1.1194556242870132e-10
6.778646207751102e-11
4.264180205425869e-11
3.948612572913416e-11
5.4409955540059284e-11
7.847435859062312e-11
1.0033252193258503e-10
1.0950838211416585e-10
1.0035233755882745e-10
7.513052496186253e-11
4.366506670559358e-11
1.8575861091041276e-11
8.570739373619315e-12
1.4080041188450324e-11
2.7896049357199215e-11
3.995497656606883e-11
4.3015167950619566e-11
3.600437109206626e-11
2.349291325393015e-11
1.2029306133832753e-11
5.954154567694379e-12
5.489846773914576e-12
7.919187692808603e-12
1.019114954114592e-11
1.0694100885958898e-11
9.416418763347598e-12
7.232874822296263e-12
5.17295906869679e-12
3.907100031402176e-12
3.4756647492207406e-12
3.4074707664607272e-12
3.185999663342247e-12
2.653184466139128e-12
2.0050969618683097e-12
1.501926926063738e-12
1.2569667932807584e-12
1.243662108634216e-12
1.3774168268826544e-12
1.544696863436832e-12
1.6145488822672221e-12
1.4917412911350654e-12
1.1746359213858294e-12
7.532903739091562e-13
3.54027212494932e-13
8.523242662437653e-14
3.1995305342248995e-31
1.5137755186604503e-07
9.943772571223138e-07
2.9270300769132658e-06
3.5002363059367975e-06
1.9392130153624275e-06
3.108658531152404e-07
7.640600566986427e-07
2.5955536669316655e-06
3.368111731442637e-06
2.126937196692715e-06
5.090839902418936e-07
5.151213474516983e-07
2.0311202207412487e-06
3.019160947790588e-06
2.183777539772451e-06
6.126311371015732e-07
2.7054742575981606e-07
1.458796212222266e-06
2.511695992178564e-06
1.992898122856455e-06
6.080579859506092e-07
1.8251266262067057e-07
1.1153633329167255e-06
2.067028518289009e-06
1.779639041698408e-06
6.52075636995454e-07
1.5771925964417308e-07
9.004353212189527e-07
1.8404332478811785e-06
1.7156132990409276e-06
7.710904351774058e-07
1.6363428956465443e-07
5.190091252031057e-07
1.1729666195998761e-06
1.2196703610690295e-06
6.311905249259505e-07
1.2753347416099736e-07
1.5036553606874016e-07
4.870760295714143e-07
6.528360604590867e-07
3.995081522594844e-07
7.188521689379098e-08
5.3612651910107424e-08
2.7814927764225263e-07
4.087111382245926e-07
2.839012310111644e-07
7.76990757617783e-08
6.424488021491094e-08
1.9067189578467244e-07
2.7109869748269784e-07
2.0372005563449058e-07
8.704592557489111e-08
2.9790432052754085e-08
6.73658107826894e-08
1.1594954473871567e-07
1.168435121064373e-07
6.905535718258961e-08
2.9278734676161472e-08
3.45822647011028e-08
6.852698545622599e-08
7.658724486578705e-08
5.776545270901578e-08
2.321540148464816e-08
1.3865710488595691e-08
1.8543553694009802e-08
2.3419848818044064e-08
1.500856387257489e-08
3.0992773880897002e-09
1.3339206356714053e-09
1.1733885380745046e-08
1.977994517753817e-08
2.7313370992694976e-08
2.8408616887015463e-08
3.302175848066849e-08
3.6866842124958044e-08
4.06950850346417e-08
4.270971567209918e-08
3.033680458280923e-08
1.753225838561904e-08
7.865616822007692e-09
4.227667745276878e-09
2.222235891114307e-09
1.6885387728465414e-09
4.334250903491243e-09
7.91936348758914e-09
1.0337615038518874e-08
1.6444546702051476e-08
1.711670560102089e-08
1.581170249533661e-08
1.604238267292712e-08
1.4328406342359383e-08
1.2946031295632341e-08
8.462238380010618e-09
5.432828745973376e-09
3.512839033150548e-09
8.350227274185711e-10
6.363442692679974e-10
1.287470339142894e-09
1.2600059356132496e-09
1.1790902574196442e-09
1.1142309069424812e-09
2.8584117977309087e-10
1.2462497976531533e-10
2.0177569039326928e-10
1.661752965139563e-09
2.234818303000369e-09
1.850757349488482e-09
2.7770538078688612e-09
1.8331767183973369e-09
1.6059041830975009e-09
1.0257052844411404e-09
2.3822595268932488e-09
5.216315183927717e-09
5.233454602909425e-09
7.923250579203212e-09
1.1510162925124815e-08
8.900111853352345e-09
7.739856966150463e-09
4.949480382500589e-09
1.2365920703399362e-09
5.243846404161309e-28
4.781730768776396e-29
3.740335305114523e-30
9.235041389253848e-31
1.1377480339571147e-12
2.3374790183552748e-12
3.790943618333326e-12
5.795525859414565e-12
8.353705449728653e-12
1.0338628481475594e-11
1.4573398806284086e-11
1.7997180862336286e-11
2.153619249906708e-11
2.7426290026682462e-11
3.1003703753199764e-11
4.0509316849307704e-11
4.194384088977142e-11
5.935732766671056e-11
5.2055251810734754e-11
7.868449245330393e-11
6.771920255775329e-11
9.649420212834765e-11
8.842895244586047e-11
1.1484172322412008e-10
1.2640962519068309e-10
1.3493626263477186e-10
1.9047189553029844e-10
1.808640149581178e-10
2.765252696880296e-10
2.792512158411507e-10
3.8411441437814573e-10
4.593180942850218e-10
5.122526201612524e-10
7.049273003843376e-10
7.407727227100027e-10
9.107949009070845e-10
1.0981838287081308e-09
1.173495530718812e-09
1.3941389448554798e-09
1.5827021944832999e-09
1.6556815156694437e-09
1.9022768642561952e-09
2.0790833852166675e-09
2.0909985167423923e-09
2.359214392726322e-09
2.429907907364624e-09
2.394262793198358e-09
2.5653144465047862e-09
2.4839741983888277e-09
2.4507896694021498e-09
2.3797348382811258e-09
2.1521210961258394e-09
2.107952391212321e-09
1.8032699234824798e-09
1.491402638305554e-09
1.4280561719685222e-09
1.08736426846637e-09
8.104700442705486e-10
7.887920043683008e-10
6.618407468307387e-10
5.830424965886888e-10
7.631207566408811e-10
1.0638775331372095e-09
1.289377363267795e-09
1.7189114395204842e-09
2.551331203495401e-09
3.295512043584804e-09
3.952121498405509e-09
4.9306823706000085e-09
5.994525514099528e-09
6.8440584226782256e-09
7.459815469790627e-09
7.89587964572113e-09
8.240934055506568e-09
8.429710043379712e-09
8.49602249301291e-09
8.282131741692575e-09
7.259331628521818e-09
5.7942542377548835e-09
4.68793101120805e-09
3.6007238032372432e-09
2.239986072982403e-09
1.2468861380242344e-09
8.065165942376596e-10
6.564673376333995e-10
9.188792251392352e-10
1.598734970801534e-09
2.4908183057181633e-09
3.6825831840871743e-09
5.358616467569457e-09
7.418811046480425e-09
9.279321046694987e-09
1.0293124919812203e-08
1.0801501268365126e-08
1.1649916630247351e-08
1.2427507272439884e-08
1.195440862266316e-08
1.0347330222572979e-08
8.771085142069445e-09
7.617691103935143e-09
6.418170347961617e-09
5.027122685610257e-09
3.849786246767439e-09
3.216329172594091e-09
3.094280393452425e-09
3.2705932781656485e-09
3.5983213416141716e-09
4.1477845711423304e-09
5.162339284299964e-09
6.804980132768313e-09
8.941338636940234e-09
1.1131508447871103e-08
1.2829226088243829e-08
1.3823647851365746e-08
1.45460773958012e-08
1.5511771187604133e-08
1.6338001973607057e-08
1.5903816723399597e-08
1.3713104870264613e-08
1.0532501921060762e-08
7.4350292998240425e-09
4.750822233539069e-09
2.3437116367812515e-09
5.608026997584771e-10
2.5934971877014754e-10
1.7598277043265605e-09
4.485801060922598e-09
8.24993955187399e-09
1.409776949717753e-08
2.2569693798806016e-08
3.1593260655991344e-08
3.786789731612083e-08
4.04981004476821e-08
4.159318834105145e-08
4.280051644916306e-08
4.283339236819551e-08
3.936957294911224e-08
3.229105940990055e-08
2.393772513278339e-08
1.667887622098032e-08
1.1186530417205696e-08
7.003789580507219e-09
4.0648647850251096e-09
3.2277751386595444e-09
5.3494771768684694e-09
1.0189086523619005e-08
1.6721680883953776e-08
2.456930812300727e-08
3.4372905867138325e-08
4.611697696837228e-08
5.7482896564877934e-08
6.465731353390609e-08
6.494176516559116e-08
5.85021506578647e-08
4.80496351907817e-08
3.7250258357637595e-08
2.8835852165630914e-08
2.3191335280607295e-08
1.8533654314005547e-08
1.2947870729838102e-08
6.5130045542582265e-09
1.4827253658830433e-09
6.7055827205843e-10
5.684208745416894e-09
1.588105535740477e-08
2.8110653922243545e-08
3.7738986078905196e-08
4.1139191658459934e-08
3.8020947325461153e-08
3.137028202551191e-08
2.4979307032185813e-08
2.0906604871255157e-08
1.8825970564374773e-08
1.7114778609592592e-08
1.4404164093001781e-08
1.0606153172392943e-08
6.956499969690718e-09
5.091327695257485e-09
5.88217008899399e-09
9.014299152559837e-09
1.3481714877041842e-08
1.8234026894145093e-08
2.2393314047286747e-08
2.5277513878535386e-08
2.65674396220659e-08
2.6384958901163598e-08
2.49983728480747e-08
2.2487793871558097e-08
1.8869023267350103e-08
1.4505691790613322e-08
1.0182871876145118e-08
6.698096912228981e-09
4.4814512089779574e-09
3.613123125500395e-09
3.999460073127758e-09
5.373119872881817e-09
7.2381698616766226e-09
9.053631529538163e-09
1.0551681788302575e-08
1.1791968977811063e-08
1.2863014658273068e-08
1.3606701841259749e-08
1.3691891935053907e-08
1.2903898761669134e-08
1.1300444099156674e-08
9.136579174873761e-09
6.7457167016459566e-09
4.505184479522176e-09
2.7985048618912156e-09
1.8821386842087928e-09
1.7542469116326067e-09
2.1850824527266892e-09
2.892226318542622e-09
3.6785520056467618e-09
4.4214377482633915e-09
4.996301225763571e-09
5.2722039602129216e-09
5.185170620675237e-09
4.778679524007297e-09
4.152221609844651e-09
3.3872988954001948e-09
2.5442006865841373e-09
1.7187737443371282e-09
1.0631111194110097e-09
7.181006423870761e-10
7.172349122386892e-10
9.603105690896075e-10
1.282006788840592e-09
1.5471103769387029e-09
1.6930971106522501e-09
1.7083561221871062e-09
1.5953897109427516e-09
1.3632440207759143e-09
1.0450468263059257e-09
7.067003111705839e-10
4.279286539280267e-10
2.691931160720388e-10
2.4927167039312214e-10
3.43484204971747e-10
4.954001965931142e-10
6.333884339135554e-10
6.913146536304918e-10
6.335135278335623e-10
4.742909340669389e-10
2.7565287590368733e-10
1.1726741577328205e-10
5.410615705429541e-11
8.888578763905822e-11
1.7610476318539817e-10
2.5223147536587715e-10
2.715501348713036e-10
2.2729172735605312e-10
1.4830823792082112e-10
7.59397175154685e-11
3.758793823048897e-11
3.465681300118745e-11
4.999298127865081e-11
6.433563238829429e-11
6.751071020443705e-11
5.944484020443965e-11
4.566036184623375e-11
3.265633495610038e-11
2.466510282375065e-11
2.1941498229224833e-11
2.1510996941001313e-11
2.011287365595543e-11
1.674926854744852e-11
1.2657961746201625e-11
9.481503357319242e-12
7.935096351035487e-12
7.85110530596189e-12
8.695484475229171e-12
9.751505377895653e-12
1.0192473669736346e-11
9.417202538087149e-12
7.415350400193093e-12
4.755441217086768e-12
2.234935765250819e-12
5.380631541838387e-13
7.096114036606422e-14
6.412338904375414e-07
4.043090138269426e-06
1.1924837132566295e-05
1.4241587412785492e-05
7.8509339814453e-06
1.2065589654977756e-06
3.0961709931430984e-06
1.0573867145050228e-05
1.3609940795098048e-05
8.535576969750474e-06
1.9647296192003313e-06
2.046892745886055e-06
8.251389263238436e-06
1.220332873972906e-05
8.783603444344592e-06
2.4170987784969594e-06
1.1135216369599472e-06
5.9529729092675535e-06
1.0164645137036955e-05
8.072093662856232e-06
2.4679609767923475e-06
7.601462347255556e-07
4.476486740844461e-06
8.179637588490275e-06
6.960743406029589e-06
2.5318045667350517e-06
6.04365263922899e-07
3.422375289987195e-06
6.955404407331868e-06
6.441599585320384e-06
2.8285514002669782e-06
5.819136925597606e-07
1.965457146774899e-06
4.51410880853528e-06
4.745239974712282e-06
2.4317706883312815e-06
4.820396101087177e-07
6.567348754759716e-07
2.028391449917658e-06
2.632561167843949e-06
1.6008675881965893e-06
3.1055885545449837e-07
2.1242141698563495e-07
1.0274590237410937e-06
1.4894067039158952e-06
1.0380142853398674e-06
2.7770725982589426e-07
2.2088215571990118e-07
7.037940827775226e-07
1.0221320917482534e-06
7.71564029472591e-07
3.224023122865856e-07
1.3230255458287216e-07
3.166560813952791e-07
5.297255555215485e-07
5.250902760359274e-07
3.0098743104364485e-07
1.314046230825056e-07
1.4633980304480648e-07
2.6531291829990285e-07
2.894693502799873e-07
2.1130411527756364e-07
7.969596847238723e-08
5.0835103427984574e-08
8.01659905777528e-08
1.049665784987272e-07
6.990947972237671e-08
2.2558823333281594e-08
9.441880035290484e-09
4.606743120016588e-08
7.366468559812579e-08
9.541942989332429e-08
8.975188806292368e-08
9.906208449021086e-08
1.0491230870956159e-07
1.1485954476089664e-07
1.1596102553225249e-07
7.96338992818299e-08
4.1228528331878824e-08
1.1574571356445678e-08
3.613937720041639e-09
3.675603523108646e-10
4.975420857939984e-10
6.096147599278386e-09
1.758452158223885e-08
2.676587062275174e-08
4.7288753813174696e-08
5.129958360882591e-08
4.82380478357244e-08
4.885547033820685e-08
4.7000740175433283e-08
4.61842122007267e-08
2.768661839332392e-08
1.8262880611258167e-08
1.1922845472723257e-08
1.3715140853381554e-09
8.370533654605558e-10
3.541795063335404e-09
5.6794355228084125e-09
6.171173453263585e-09
5.797737781865677e-09
1.411612075997845e-09
3.0328621947844666e-10
3.004450544214563e-10
5.320807527966063e-09
7.26423449430411e-09
6.749030294547581e-09
1.2060238578294634e-08
8.380885306160374e-09
4.604853388953471e-09
2.4584707591777214e-09
2.7761696253340063e-09
8.84668772050172e-09
8.870315510841597e-09
1.574709705620891e-08
2.388217209955582e-08
2.0020343144802602e-08
1.992263863311129e-08
1.3589965544198947e-08
2.475723680673241e-09
9.606184703293224e-28
8.825173314830193e-29
6.346599064990241e-30
2.0563588995958826e-30
4.726191570131711e-12
1.0778861331307383e-11
1.8630316507592445e-11
2.962271217052856e-11
4.347822570994556e-11
5.831985244979262e-11
8.298495915718544e-11
1.042063279750482e-10
1.2757947167189676e-10
1.6540644967028426e-10
1.8825774826778517e-10
2.415700187893893e-10
2.562743149559172e-10
3.4569403667941405e-10
3.21183703352336e-10
4.4679123741360915e-10
4.1117220977129553e-10
5.332733840784227e-10
5.205726761133906e-10
6.070768336366378e-10
6.859831821603866e-10
6.676015751605183e-10
9.313052711844456e-10
8.256131418972117e-10
1.2097688536559912e-09
1.1816649297568845e-09
1.5181741715902497e-09
1.8111436253840965e-09
1.8674607106949394e-09
2.6015814288778306e-09
2.598012829442922e-09
3.180680838430762e-09
3.754832916510612e-09
3.924538520245927e-09
4.664109836241123e-09
5.148780624879721e-09
5.434086009390482e-09
6.121780359978107e-09
6.665627079990922e-09
6.661517780351958e-09
7.476211239446367e-09
7.727115055219354e-09
7.462246346673166e-09
8.140590564736859e-09
7.75315905720193e-09
7.536028714731216e-09
7.453200646664352e-09
6.421263377105808e-09
6.267100657890792e-09
5.297979955395466e-09
3.8917517055306285e-09
3.583662762544475e-09
2.4132961168277297e-09
1.2149222407312759e-09
8.075362268149469e-10
2.93902941523184e-10
1.0607981782018649e-10
4.633150752017703e-10
1.2377190178420427e-09
2.1967899305992883e-09
3.996176424776617e-09
6.733977603356113e-09
8.923248424296521e-09
1.1545958337278047e-08
1.5357055158598546e-08
1.8663163847370595e-08
2.1447373172898122e-08
2.3750793403204795e-08
2.534981497377408e-08
2.6931320496711596e-08
2.7631273760792746e-08
2.764521837334711e-08
2.73858511952511e-08
2.4372388446806878e-08
1.9882618203728637e-08
1.72884045717852e-08
1.4138691159745036e-08
9.216353422923173e-09
5.910382583403539e-09
4.07384502142159e-09
1.9198529635470788e-09
7.0512461686892e-10
1.0972295129996088e-09
2.3850653195182816e-09
4.454468786799283e-09
7.564381479623334e-09
1.2054507298977174e-08
1.644471165778891e-08
1.840752051310641e-08
2.001266091916313e-08
2.4476765513376653e-08
2.8773286161121897e-08
2.877597243114492e-08
2.672904213606387e-08
2.6099641967781064e-08
2.5815048643753413e-08
2.387961416204288e-08
2.082815835324104e-08
1.8121222785367663e-08
1.6594447683342043e-08
1.6183270757770557e-08
1.595186783137181e-08
1.5457746367157297e-08
1.5651548633633407e-08
1.7252187618590604e-08
2.0003719484224967e-08
2.4275318613297295e-08
3.0139441479611655e-08
3.503415382542632e-08
3.7091485057318326e-08
3.9224427489236954e-08
4.410030152939196e-08
4.821386906506169e-08
4.689831257644294e-08
4.091537988812967e-08
3.347141100102558e-08
2.5727306418152566e-08
1.7977145955865053e-08
1.0982901657482149e-08
5.782896056525926e-09
4.256939632268164e-09
7.564309890001456e-09
1.461034519173299e-08
2.6233395843791525e-08
4.698380504964178e-08
7.650893196093352e-08
1.0472733173613294e-07
1.224409426547335e-07
1.312074012446103e-07
1.3742372485328432e-07
1.4233462815077704e-07
1.4169741048588402e-07
1.3096622151106746e-07
1.0955567449505592e-07
8.308340617230252e-08
6.018801104909045e-08
4.4990048507601676e-08
3.539299732120085e-08
2.9453263037219253e-08
2.885646233032843e-08
3.536903639679374e-08
4.837732900409258e-08
6.677575137006856e-08
9.035835961422744e-08
1.1921473080332176e-07
1.5228149158376666e-07
1.8416226336136287e-07
2.0375965960956414e-07
2.0114956025398345e-07
1.7740564870194471e-07
1.438955843624483e-07
1.1147381904752239e-07
8.403254329862098e-08
6.139423957726429e-08
4.264292616235173e-08
2.6087014367823692e-08
1.11005508913987e-08
1.482041002582974e-09
3.6963310952642964e-09
2.0728368727709716e-08
4.900249429657771e-08
8.000987347854347e-08
1.0304616733724639e-07
1.0933157775304621e-07
9.820947063968958e-08
7.901157095609501e-08
6.332319550254652e-08
5.5030112333253565e-08
4.9643197123851486e-08
4.190598912249982e-08
3.098536880863098e-08
1.9171907708989762e-08
9.442884199729768e-09
5.071340534569047e-09
8.547633706818958e-09
1.914609748243039e-08
3.291033832063681e-08
4.5929491658531954e-08
5.655856988456513e-08
6.422229493654461e-08
6.792982366371389e-08
6.710276567846292e-08
6.256743842090172e-08
5.542993472860675e-08
4.580221498269897e-08
3.3885537547748306e-08
2.1690393770275265e-08
1.2228605097684468e-08
6.996907117613595e-09
5.309050406586799e-09
6.0985387084113076e-09
9.181461684601232e-09
1.4340820017843784e-08
2.0274835080180355e-08
2.541700698668594e-08
2.9343075030911942e-08
3.248820976343574e-08
3.464400522403409e-08
3.463078972976671e-08
3.168718207577048e-08
2.653366728713852e-08
2.0658111211949826e-08
1.4987951731387045e-08
9.764011506975579e-09
5.4228833969607896e-09
2.85440505801268e-09
2.5468804955666494e-09
3.9125610004156854e-09
5.83471423951319e-09
7.711334780648405e-09
9.623444973306712e-09
1.1555612866982421e-08
1.2888802383254424e-08
1.2904769896077983e-08
1.1593463479386498e-08
9.668147254339638e-09
7.790465046516915e-09
6.021161866359631e-09
4.1357870011678935e-09
2.2865567803748945e-09
1.0912661988820322e-09
1.0200493074359602e-09
1.8448998510672533e-09
2.816321650739874e-09
3.3496817064819454e-09
3.4490323732669817e-09
3.465996824305287e-09
3.5604378495534593e-09
3.498086785117411e-09
2.9636647608777414e-09
1.982299770466602e-09
9.729841557756447e-10
4.000827854998954e-10
4.013801610509131e-10
7.400921743150925e-10
1.0666608863566426e-09
1.1982530772619256e-09
1.1739111996088345e-09
1.1039904633188434e-09
1.0164259445079417e-09
8.530509940743308e-10
5.821194429294157e-10
2.796858374451364e-10
8.990357143127434e-11
1.0911762061487893e-10
3.043015430184663e-10
5.323849570880575e-10
6.396097266794113e-10
5.631925462364877e-10
3.614691923029551e-10
1.564708705400466e-10
4.254183204477497e-11
3.535148267499604e-11
8.840724398035694e-11
1.4269061359146858e-10
1.624680225656897e-10
1.4272709933198736e-10
1.002473792577668e-10
5.934710092579062e-11
3.6741564392288814e-11
3.281397196395107e-11
3.6119912322858533e-11
3.608767738088129e-11
3.074261556562773e-11
2.3987997780660873e-11
1.9268438627931594e-11
1.731455022966505e-11
1.758264840777534e-11
1.917686046568775e-11
2.0483786955131674e-11
1.9575836949705654e-11
1.570356018179716e-11
1.0020952399954998e-11
4.62178831261193e-12
1.1264735696461823e-12
2.3849795728969103e-13
1.4068804086586544e-06
8.420139022876572e-06
2.4898772706564096e-05
2.975589216531163e-05
1.6363995446594012e-05
2.4126811328509547e-06
6.355233352921009e-06
2.206277350752366e-05
2.8436149828138987e-05
1.7725172877275514e-05
3.920792478414864e-06
4.1875469633711134e-06
1.736114135587287e-05
2.5664281984986505e-05
1.8333285240554706e-05
4.931665327517575e-06
2.354000105290342e-06
1.2676303238098865e-05
2.1495241554788572e-05
1.6973661814886034e-05
5.182259540938415e-06
1.6311648523168877e-06
9.341263892742095e-06
1.6859430978204404e-05
1.4241834282141473e-05
5.176047058384046e-06
1.2247931132885712e-06
6.7112039715596e-06
1.3547841706980184e-05
1.2491704469137511e-05
5.489822681114406e-06
1.0953771350595444e-06
3.807661584792063e-06
8.911765938303569e-06
9.458357661776298e-06
4.855361724026823e-06
9.611687193507717e-07
1.5151181345060281e-06
4.452971896936089e-06
5.624239501395222e-06
3.3770462517150442e-06
7.223056066831014e-07
4.821598492790822e-07
2.0253187052023264e-06
2.9311463440881945e-06
2.0982857365983676e-06
5.885331877167832e-07
3.7875717593718484e-07
1.2807697604257656e-06
1.9694484340658613e-06
1.547226885337447e-06
6.519382259565665e-07
2.633980510927146e-07
6.861670630879502e-07
1.146463550391532e-06
1.1126378950943382e-06
6.341245686458225e-07
2.7129367910145416e-07
2.776128167402624e-07
4.854772440153878e-07
5.102545455458879e-07
3.602589863770173e-07
1.2385832165769874e-07
9.578006597429172e-08
1.778053214357916e-07
2.3430236872009287e-07
1.668637500601357e-07
7.415802453048213e-08
3.974731377300849e-08
1.1060739687496443e-07
1.5308376554323083e-07
1.835884891249233e-07
1.5529211823376843e-07
1.522493939841066e-07
1.5214391969216214e-07
1.677934488694184e-07
1.683424969936046e-07
1.0522718988194355e-07
4.49044818928333e-08
6.375042023352661e-09
5.8688022631283e-09
7.3704968186835404e-09
8.95931045758501e-09
3.388457045157551e-09
1.3662075295227344e-08
2.3549727614948717e-08
5.599540851599037e-08
6.471121375274073e-08
6.540992984985171e-08
6.900009495210206e-08
7.313826215175055e-08
7.923940980350137e-08
4.754636588014811e-08
3.1177364559014626e-08
1.7403989138303617e-08
1.1930679736615513e-09
1.1617850597791282e-09
7.51995011389288e-09
1.677684013613974e-08
1.8559512203232813e-08
1.9040608514952574e-08
7.69908330530905e-09
2.9348477287162687e-09
6.262353724263666e-10
4.604301278886152e-09
8.593960210578291e-09
8.892625461909587e-09
2.1258911028675946e-08
1.5946983835467286e-08
9.235814951741576e-09
6.123744731725025e-09
1.6492974354666036e-09
6.76435049861645e-09
5.664409394114836e-09
1.4409852861215069e-08
2.847983096073735e-08
2.2231032298622064e-08
2.4190890286802695e-08
1.775521421826919e-08
3.0632812551113767e-09
1.2229006998250865e-27
1.1197667732368842e-28
8.273114049530292e-30
2.51190352369374e-30
4.496936113399075e-12
8.4957839734335e-12
1.4954611717670465e-11
2.3423668383617713e-11
3.6108741595136924e-11
4.699805565228217e-11