# vtk DataFile Version 4.1 
COMMENT
ASCII
DATASET STRUCTURED_POINTS 
DIMENSIONS 400 400 1 
ORIGIN 0 0 0
SPACING 0.002506265664160401 0.002506265664160401 0 
POINT_DATA 160000
SCALARS U double 1
LOOKUP_TABLE default
1.2195654467724036e-06
6.610121323143879e-09
1.9038736270707125e-08
2.13072333363033e-08
1.0834258692384116e-08
1.209829137743978e-09
6.232905485896544e-09
1.912632708391309e-08
2.3753995432682072e-08
1.25418800901366e-08
2.095264370677336e-09
1.0049350242234302e-08
3.4088914342458856e-08
5.232938887640258e-08
4.834305591748577e-08
2.700422447397646e-08
1.104347423866098e-08
9.926310361754934e-09
1.4595121034437445e-08
1.2470317498026374e-08
4.12993144664516e-09
1.056501865494014e-09
9.291505803104048e-09
1.934391337218147e-08
1.9469421986124756e-08
9.896575411194844e-09
2.6182668269014166e-09
6.835888792407235e-09
1.695406496454415e-08
2.038183962291834e-08
1.3701794163605793e-08
4.802964791991674e-09
3.0269543352533544e-09
6.871273871181509e-09
7.4862381708793e-09
2.8102307795242225e-09
3.072559619920632e-10
7.749359541300965e-09
2.194666011243607e-08
3.2335078222923226e-08
3.0772765958883676e-08
2.0952255909289098e-08
1.254628787987442e-08
8.533631279920297e-09
6.800908100957367e-09
4.044605332063888e-09
1.5455109037457702e-09
2.6739346756539925e-09
6.5532295758217e-09
8.346819792648641e-09
5.706256697602914e-09
1.5036720704990916e-09
3.05548684778902e-10
3.377965955961581e-09
7.303235062876506e-09
8.973957381172345e-09
7.411574545132533e-09
5.651221418492982e-09
4.9350022171099984e-09
5.527844954443291e-09
7.743504985332606e-09
1.227454103122527e-08
1.6859526149500337e-08
1.8260702870785794e-08
1.3860495999140355e-08
6.001063572369848e-09
9.14935167055374e-10
2.294956395888563e-09
7.754953695538683e-09
1.1021458361448952e-08
9.420547716728588e-09
4.541530094294382e-09
1.8469826190164906e-09
3.773383810923452e-09
8.186896132728662e-09
1.1529080852825798e-08
1.2635337798411744e-08
1.0933775855148371e-08
9.786657715896142e-09
8.755850250167653e-09
7.813985108029373e-09
7.614697317815143e-09
7.299887240706089e-09
7.674570893934693e-09
7.520652893080583e-09
7.034217098115721e-09
5.617824978181383e-09
4.059210209702936e-09
2.6278468215556605e-09
1.879138874853853e-09
1.6155028351642555e-09
1.3400487876210707e-09
1.048291733017124e-09
7.655270972731609e-10
5.413419532529228e-10
7.064558036284866e-10
8.782824514141627e-10
8.969167683487991e-10
5.918760068504915e-10
4.0558454892964495e-10
7.286065915689516e-10
1.8013292033837926e-09
2.819148009418555e-09
3.3884818474186733e-09
2.903444174542344e-09
1.7293960422439919e-09
8.886531123682997e-10
9.08739619571183e-10
1.5976035428927366e-09
2.2824173254388694e-09
2.246687497888827e-09
1.697739680646322e-09
1.0500352090708524e-09
9.442659536156518e-10
1.2825988336452872e-09
1.47908191701366e-09
1.6027865283671803e-09
1.1333064428618418e-09
5.699224165333954e-10
2.1723657122244503e-10
6.167166364222491e-29
7.915068924282465e-30
2.227523778506369e-30
2.0916259721427652e-29
7.494126636913012e-11
1.5529291903879764e-10
1.663763226039021e-10
1.0888053304475112e-10
2.795388616365366e-11
3.4702041289188056e-12
2.0605829386354376e-11
5.928822532194903e-11
1.0974791277424183e-10
1.0529707922848163e-10
5.83161208785861e-11
7.331114901285493e-11
1.3162408060961943e-10
1.5563594382003352e-10
1.162333338136434e-10
4.799970612002074e-11
2.3103028508667437e-11
2.0329337661006488e-11
2.499579487734345e-11
8.066096091033532e-11
1.6243374723827555e-10
1.9118592922365564e-10
1.6343826730355292e-10
8.762894533783751e-11
2.9097473161980566e-11
2.066114993297675e-11
2.021221298747894e-11
2.2049441768814624e-11
1.557303199548773e-11
1.9308657355103628e-11
3.381581009983486e-11
4.684855689781068e-11
3.895294584432298e-11
2.5170870698674738e-11
6.8398987311025206e-12
7.109856687166768e-13
1.6469520004456768e-11
6.140976606394563e-11
1.0714251351896394e-10
1.013657638087952e-10
9.902591306344442e-11
1.2617212942689636e-10
1.8395387375273878e-10
2.829625978298308e-10
3.6897882506707534e-10
3.9747084645130577e-10
3.9263770425727733e-10
3.288909353409614e-10
1.9059862260637432e-10
8.405711087316043e-11
1.018413285213378e-10
1.9387271383710738e-10
1.9296309687457354e-10
1.0583619999347286e-10
2.9192693373576163e-11
5.1012681982440627e-11
1.6149190192380927e-10
2.1110464667816667e-10
1.8319873235243952e-10
1.2068714374789376e-10
6.686383479241229e-11
3.896630236869474e-11
1.0298375838099602e-10
3.215362541945446e-10
5.495733077772547e-10
5.884503263216095e-10
4.6121375976849583e-10
3.7606907651018224e-10
4.627284849696612e-10
5.603694322509149e-10
4.510757193193434e-10
1.5707872013053952e-10
6.724496792938254e-12
2.4217346338640154e-10
5.057899764123356e-10
4.256246361194498e-10
1.7438433828028594e-10
1.9669485020557715e-10
9.301578392419236e-10
1.9336863676614425e-09
2.1326263020258422e-09
1.372739820105998e-09
5.631762910477482e-10
3.2669777228907465e-10
5.323139146567175e-10
6.138945419360249e-10
3.186494251469966e-10
1.888437327094641e-11
1.3716882934171402e-10
3.9813696723637776e-10
3.5912029008301005e-10
9.679703755440221e-11
7.399617251324956e-11
6.098690006896115e-10
1.5401488045878466e-09
2.1900339102403613e-09
1.853274319315008e-09
7.842497101023648e-10
3.721890008621613e-11
3.825821347921882e-10
1.426349970601325e-09
1.996249140630178e-09
1.618631211798863e-09
9.149817122736714e-10
4.400182735869645e-10
4.3716540477247374e-10
3.156921385892293e-10
1.859477799865195e-10
7.069291242713006e-10
1.9605598459705866e-09
2.746742215402732e-09
2.11390661691875e-09
6.670817325434273e-10
1.2386645378772875e-10
1.0788962481422705e-09
2.2549053377836526e-09
2.674283965809596e-09
2.1418743631816606e-09
1.3589986599236156e-09
8.408836531534009e-10
6.624916801516657e-10
1.0432401179217339e-09
2.3513852072811517e-09
3.946816993727322e-09
4.721778487037022e-09
3.9179414480292234e-09
2.328000209237958e-09
8.150096635989173e-10
3.341437915177142e-10
7.454773166100516e-10
1.6370648387148066e-09
2.4251249983437445e-09
2.637477135038355e-09
1.6457998163567046e-09
4.5976444955194314e-10
2.4331022501465333e-10
1.957674452673839e-09
4.792002333395803e-09
6.85561585883372e-09
6.158327870489513e-09
3.864378083839948e-09
1.3258139677587054e-09
7.91286275858523e-10
2.242719873090619e-09
4.368415600875172e-09
5.180393958455937e-09
4.554741922865746e-09
2.79093893987474e-09
1.22598133378081e-09
2.2305973176077386e-10
7.992660594918286e-10
2.74548209827664e-09
4.927902988008722e-09
5.221458702102671e-09
3.4525749492042375e-09
8.471836074232039e-10
2.336032620109492e-10
1.7675862736875944e-09
3.55248858920114e-09
3.950412298026052e-09
3.39665748826138e-09
2.3823687514673356e-09
1.3295506403815238e-09
2.7543768800800307e-10
3.0648685216059185e-10
2.2788993134887476e-09
5.182176578320112e-09
6.115085019803982e-09
4.003553717815899e-09
9.875057972056178e-10
8.4176923864362e-11
1.746374442721109e-09
3.752604911323604e-09
4.01056044384081e-09
2.817531284565752e-09
1.3657563284851368e-09
4.0918713892511414e-10
2.4174540316486465e-11
2.8160208897542126e-10
1.1259943586561793e-09
1.97469047609594e-09
1.843651314648414e-09
8.50958065639842e-10
5.6861226233393897e-11
4.1925115821652774e-10
1.8608545073181718e-09
3.2518694095555363e-09
3.4557553985407705e-09
2.3038381384442285e-09
1.0642425044682616e-09
5.145963168839125e-10
8.232095873202456e-10
1.3299599712612671e-09
1.768889316088351e-09
1.6282108766962984e-09
1.1674164839557617e-09
6.977623298950886e-10
2.7265418083377463e-10
3.0749694357401984e-10
9.522854047486375e-10
1.7526219800079945e-09
1.918479724331451e-09
1.3157739511088897e-09
5.472446343561214e-10
8.105190011110848e-10
2.0316364631287645e-09
3.0316660921441906e-09
2.8847365269037593e-09
2.12495984686141e-09
1.424106561031627e-09
1.4223351696437547e-09
1.718489476798545e-09
2.042568406960176e-09
1.9653720087292048e-09
1.7016488976290936e-09
1.4176577669611074e-09
1.018082957522805e-09
9.575658154711887e-10
1.1058377885670408e-09
1.384067603863467e-09
1.3323572692898818e-09
8.282256587035643e-10
4.360568783532671e-10
3.81590969323226e-10
8.717742194362452e-10
1.5056770443504691e-09
1.763549207225719e-09
1.3476451781307669e-09
5.350320114879965e-10
1.8041334663376056e-11
2.424276755350043e-10
9.56105212289506e-10
1.498639606023906e-09
1.4961007265635116e-09
1.1283572953772091e-09
7.053312306318331e-10
4.5206199336573454e-10
3.5330084979119337e-10
3.1279208600833425e-10
3.6385471748110204e-10
7.392790672754718e-10
1.54306209609747e-09
2.312070741372064e-09
2.3887570247946208e-09
1.7336355274047615e-09
7.11582482806314e-10
1.1522897279972167e-10
7.22119664617008e-10
2.5162480410631746e-09
4.334069806169027e-09
4.683551624024895e-09
3.2963302195632297e-09
1.0777971291295833e-09
5.677808284910151e-11
1.2756170986286478e-09
3.808050610909106e-09
5.608706765308004e-09
5.198767417770058e-09
3.117240897508937e-09
7.915101021745473e-10
2.6306690604110386e-11
1.2952157941270066e-09
3.607030688943226e-09
5.167284312931337e-09
4.784560933821901e-09
3.147958389805559e-09
1.145651234311529e-09
2.1478893053206086e-11
6.06581021410311e-10
2.20562085720247e-09
4.032123352447906e-09
4.812179956573441e-09
4.0284062564365606e-09
2.399190560334879e-09
6.975596148475843e-10
6.894281618848033e-31
6.770749969722588e-09
4.1728985898090546e-08
1.2018949706356391e-07
1.345102753719263e-07
6.839551138158753e-08
7.637521394842726e-09
3.9347662835544415e-08
1.2074244845891525e-07
1.499564216715848e-07
7.917554184435672e-08
1.3227178912834457e-08
6.344046864539529e-08
2.1519965464130393e-07
3.303498111046046e-07
3.05184519320124e-07
1.7047476849146292e-07
6.971626665270204e-08
6.266373109604808e-08
9.21374313803511e-08
7.872377488713872e-08
2.60718136131229e-08
6.66958279451635e-09
5.865627810373486e-08
1.2211604732509322e-07
1.2290836972362334e-07
6.247601754709128e-08
1.652883724155956e-08
4.315423168112216e-08
1.0702919102917265e-07
1.286683642589157e-07
8.649795479997427e-08
3.032060082956566e-08
1.9108837583313137e-08
4.3377613882596227e-08
4.725981745124616e-08
1.774068505498652e-08
1.939673884680372e-09
4.8920874399984546e-08
1.3854690792671507e-07
2.0412787560399337e-07
1.94265166094221e-07
1.322693410044811e-07
7.920336774751634e-08
5.387189764467614e-08
4.2933402333390494e-08
2.5533159016930513e-08
9.756644326927224e-09
1.6880262391267465e-08
4.13698344081757e-08
5.269257679156773e-08
3.602298560412879e-08
9.492520266687917e-09
1.9288960270179578e-09
2.132473624152912e-08
4.6104538487391506e-08
5.665162902500258e-08
4.678847400177294e-08
3.5675553798628496e-08
3.1154138911762656e-08
3.489669143335543e-08
4.888391521701346e-08
7.74878590812189e-08
1.0643237764452675e-07
1.1527785578099229e-07
8.749982244101677e-08
3.7884069738354414e-08
5.7758874334188664e-09
1.4487813218414368e-08
4.895618969480072e-08
6.957728278466044e-08
5.9470905843629373e-08
2.867019166456518e-08
1.1659802883360767e-08
2.3820966686768422e-08
5.1682995904420305e-08
7.278184904731765e-08
7.976553031809726e-08
6.902375254065185e-08
6.178211894329249e-08
5.5274742134575735e-08
4.932884866109587e-08
4.80707662476318e-08
4.608340404563026e-08
4.844874170245638e-08
4.74770738959041e-08
4.440625697196287e-08
3.5464725658163104e-08
2.5625358040707786e-08
1.6589314718792997e-08
1.1862801872452617e-08
1.0198495871908093e-08
8.45958405719505e-09
6.6177531100671305e-09
4.832690337296945e-09
3.417433603562364e-09
4.459779605560452e-09
5.544502776564885e-09
5.6621392177998475e-09
3.736449655894571e-09
2.560411692219734e-09
4.59961515053947e-09
1.137159777425538e-08
1.779697856948038e-08
2.1391121934751195e-08
1.8329131205377938e-08
1.0917491454557725e-08
5.609971645221479e-09
5.736775607635341e-09
1.008549956241997e-08
1.4408655413528333e-08
1.4183096850063452e-08
1.0717648244105772e-08
6.628759487121808e-09
5.9610495384574445e-09
8.096908668634822e-09
9.337285269043816e-09
1.0118219192998577e-08
7.1544418416066605e-09
3.5978589983302316e-09
1.3713911400312183e-09
3.8932658821671845e-28
4.9966979935355773e-29
1.4062118348040254e-29
1.3204210093698091e-28
4.730961648999084e-10
9.803475173676852e-10
1.0503158535692852e-09
6.873511098946142e-10
1.7646988073210315e-10
2.1907025919801936e-11
1.3008238757600874e-10
3.74280198113782e-10
6.928267849587737e-10
6.647291508630895e-10
3.681434071797739e-10
4.6280540912602103e-10
8.309286827122264e-10
9.825129959662058e-10
7.337685513600677e-10
3.030169889290605e-10
1.458469374027831e-10
1.2833692501277492e-10
1.57795768179961e-10
5.092039821672954e-10
1.0254267987710984e-09
1.2069362352781753e-09
1.0317682260443837e-09
5.531921194039446e-10
1.8368922261609233e-10
1.304316202446735e-10
1.2759752952954275e-10
1.3919575748331638e-10
9.831087823682227e-11
1.218934798762458e-10
2.1347557689264547e-10
2.9574990753798035e-10
2.459057630509178e-10
1.5890100303455444e-10
4.317954599338477e-11
4.488376157294459e-12
1.039703107427121e-10
3.8767325693632336e-10
6.76379179314725e-10
6.39911178894155e-10
6.251399524698358e-10
7.965111005077406e-10
1.1612810459091903e-09
1.7863124861545092e-09
2.3293236894167765e-09
2.509190759993503e-09
2.478679652466334e-09
2.0762531475481754e-09
1.2032286316878175e-09
5.306435120909498e-10
6.429133678424636e-10
1.223897617946506e-09
1.2181553037669853e-09
6.681325623437411e-10
1.8429033758397863e-10
3.2203758191485e-10
1.0194810304675817e-09
1.3326809590334137e-09
1.1565139193613273e-09
7.618849750765863e-10
4.2210420697963577e-10
2.459900813546085e-10
6.501254048343293e-10
2.029823835461388e-09
3.469397260517553e-09
3.714823702679374e-09
2.9115929249285216e-09
2.3740836851898346e-09
2.9211552224218542e-09
3.537552034672459e-09
2.847592564533362e-09
9.916210878410712e-10
4.245102595345627e-11
1.528815061708502e-09
3.19299779252274e-09
2.68692261007716e-09
1.1008695963669396e-09
1.2417134617056871e-09
5.871986527815163e-09
1.220715433542094e-08
1.3463040772269393e-08
8.66595903382085e-09
3.5552714327629133e-09
2.062407944776485e-09
3.360440565635899e-09
3.87545030280612e-09
2.0115995937680393e-09
1.1921502002671307e-10
8.659320858782041e-10
2.513395908959434e-09
2.2670878170001068e-09
6.110693007921165e-10
4.671298889033804e-10
3.850037493314164e-09
9.722793970903997e-09
1.3825448836587245e-08
1.169952171153304e-08
4.9508841810301606e-09
2.3495891843955927e-10
2.415199922535084e-09
9.0043941554549e-09
1.2602106401098934e-08
1.0218244977573126e-08
5.776181268382402e-09
2.777788097341541e-09
2.7597782429517028e-09
1.9929305613807494e-09
1.173868361791008e-09
4.462767627937608e-09
1.2376803717417697e-08
1.7339888569203456e-08
1.3344865410931397e-08
4.211215324099216e-09
7.819556178578949e-10
6.810956126720347e-09
1.4234975190614222e-08
1.6882467422501386e-08
1.3521422788981345e-08
8.579212565572775e-09
5.3084081802728745e-09
4.182238816382679e-09
6.5858628065805596e-09
1.4844042243531173e-08
2.4915831740779475e-08
2.980808040687553e-08
2.4733543522404925e-08
1.4696415262744197e-08
5.145068463425912e-09
2.109413864365422e-09
4.706118225583756e-09
1.0334614484276857e-08
1.5309553623875327e-08
1.665010985338554e-08
1.0389757459877419e-08
2.9024435852066122e-09
1.5359913157643428e-09
1.2358588539464934e-08
3.025139600596373e-08
4.327876653252333e-08
3.887686236010728e-08
2.4395403757695506e-08
8.369721168412851e-09
4.9953052648280685e-09
1.4158049660888017e-08
2.757733846240798e-08
3.270327061654386e-08
2.875359651921013e-08
1.7618897743479405e-08
7.739488473462639e-09
1.408152127024823e-09
5.045680781770265e-09
1.7331933585139778e-08
3.1109322240997875e-08
3.2962507932286225e-08
2.179573480187216e-08
5.3481791148792894e-09
1.474712300978847e-09
1.1158582283522564e-08
2.242647887911924e-08
2.493852851063388e-08
2.144273387721867e-08
1.5039638029933957e-08
8.39331038131238e-09
1.7388085387246745e-09
1.9348185769269153e-09
1.4386446581968476e-08
3.271452410426932e-08
3.8603874888586655e-08
2.5274004585672143e-08
6.234018026506793e-09
5.31399878634897e-10
1.102467427306382e-08
2.3689791725524667e-08
2.5318237294451878e-08
1.7786772359142382e-08
8.621873001338208e-09
2.583154455895066e-09
1.5261127635092992e-10
1.7777237398933618e-09
7.108281439431379e-09
1.2466008867581506e-08
1.163877271671148e-08
5.372006864173931e-09
3.589588135597043e-10
2.64668752867228e-09
1.1747374624184036e-08
2.0528702288513407e-08
2.181581263691114e-08
1.4543882705151042e-08
6.718448616913231e-09
3.2485912740017517e-09
5.196833701097825e-09
8.39589444318862e-09
1.1166808250234465e-08
1.0278720373087256e-08
7.369774867160646e-09
4.404898639676177e-09
1.7212365569194505e-09
1.941195175522638e-09
6.011675472064307e-09
1.1064114304887356e-08
1.2111156429474388e-08
8.306339621733845e-09
3.4546965953404257e-09
5.116719393497086e-09
1.282550276696358e-08
1.9138582398459637e-08
1.8211031835285643e-08
1.3414643264295548e-08
8.990231751813412e-09
8.979049148252762e-09
1.0848639478410759e-08
1.2894514954135168e-08
1.2407182384022595e-08
1.0742326711016128e-08
8.949521207532448e-09
6.427048355195633e-09
6.045010137769458e-09
6.981035177542272e-09
8.737470115927166e-09
8.411028328141585e-09
5.228499620947958e-09
2.7527802347377275e-09
2.4089428013938744e-09
5.50341700715894e-09
9.505177451250812e-09
1.1133096716583362e-08
8.507539254529416e-09
3.3775996189720246e-09
1.1389300785067676e-10
1.5304198756968659e-09
6.035789506771697e-09
9.46075085900966e-09
9.444723185685602e-09
7.12319840514042e-09
4.45268029702667e-09
2.8538188066492814e-09
2.230350315523128e-09
1.9746228409417648e-09
2.296975748623811e-09
4.666989343308942e-09
9.741185267278003e-09
1.4595854243143453e-08
1.5079966513263604e-08
1.0944254869000598e-08
4.49214378053657e-09
7.274281281609063e-10
4.558663877474053e-09
1.5884803604736757e-08
2.7360517149623094e-08
2.9566758326753324e-08
2.080937860640983e-08
6.804017506453244e-09
3.584339383053713e-10
8.052833725405949e-09
2.4039814471402597e-08
3.540716335971076e-08
3.281926029164008e-08
1.9678806952855402e-08
4.996718256319207e-09
1.6607131209541023e-10
8.17655818492661e-09
2.2770797296244338e-08
3.262051083249728e-08
3.020441924975894e-08
1.987272318225689e-08
7.232373184033802e-09
1.355939447261977e-10
3.829280833296631e-09
1.3923847558513702e-08
2.5454361620345384e-08
3.037877517373916e-08
2.5430895992491292e-08
1.514583230242882e-08
4.403618921355573e-09
6.614835962942908e-10
2.79234509061375e-08
1.6202934356579548e-07
4.619384154320428e-07
5.174244265426035e-07
2.6256442970855816e-07
2.9127174923271573e-08
1.5519455459151906e-07
4.736032706325647e-07
5.948188297800622e-07
3.195532518558432e-07
5.0059138467596e-08
2.0882823851660382e-07
7.482316843975335e-07
1.1357093143563924e-06
1.0294377916870727e-06
5.371663049030443e-07
2.083578717757342e-07
2.523285825840466e-07
4.082063127616237e-07
3.5225094205491026e-07
1.205213275047249e-07
1.145347969604516e-08
1.9218925709806967e-07
4.336630540143694e-07
4.44070608634203e-07
2.1786068903209046e-07
5.04722249063859e-08
1.5642339497513919e-07
3.934219053600796e-07
4.591012520898095e-07
2.9120591964004355e-07
9.511074273414435e-08
8.887848521673488e-08
2.1665657364858352e-07
2.3758562666716954e-07
1.0139874258124471e-07
4.341870081524612e-09
1.4683256736663587e-07
4.574082830434585e-07
6.721012183272247e-07
6.175659528387104e-07
3.8640950187355325e-07
2.2199753168732535e-07
1.7539561520625586e-07
1.6083435849439637e-07
9.635227116430481e-08
2.6996661887815537e-08
4.9798300265188595e-08
1.5325437605708718e-07
2.0978209695466428e-07
1.4985059499042474e-07
4.258277021508644e-08
5.475528780153954e-09
7.502083299787533e-08
1.622675910898895e-07
1.9073166586055492e-07
1.3879268436707754e-07
8.806816426721122e-08
6.122083281889275e-08
6.586566985452053e-08
1.0332478852689824e-07
1.937132613497103e-07
3.0852617427020723e-07
3.6379417066906734e-07
2.8955955457059996e-07
1.304422142288596e-07
2.010070998867979e-08
5.039900110769586e-08
1.6983601323333477e-07
2.3785410788384868e-07
1.9375805900869745e-07
8.803126648957632e-08
3.836118614470663e-08
8.773639412470327e-08
1.8295972015423068e-07
2.4022278192917687e-07
2.461192156774571e-07
2.0598904070097918e-07
1.8712798379159406e-07
1.7905952572685362e-07
1.6748269286485287e-07
1.633344556347917e-07
1.5346506687006574e-07
1.5702433776009073e-07
1.5138246505480297e-07
1.4114231938827599e-07
1.0720905295059999e-07
7.407178184927896e-08
4.571440324241155e-08
3.5194394685189486e-08
3.538762173763683e-08
3.077488926066604e-08
2.3846059727340342e-08
1.635810601391388e-08
8.768926940387026e-09
1.1362590488098566e-08
1.5446503960705797e-08
1.787320758968099e-08
1.147885230439668e-08
7.1468866423694405e-09
1.2189389833211978e-08
3.490176121524278e-08
5.5289087194511644e-08
6.784881788592278e-08
5.861966384543501e-08
3.101916988196058e-08
1.4292774278538134e-08
1.6025753266336363e-08
3.41352420763256e-08
5.075234003608158e-08
4.8904074590045225e-08
3.484031396876822e-08
1.9100639642122777e-08
1.4942397229260068e-08
2.310968650384305e-08
2.7280116699132125e-08
2.991697301560197e-08
2.1066006711088077e-08
1.0773777918256624e-08
4.060098511735006e-09
7.933638563901036e-28
1.0563190523837567e-28
3.316005597785474e-29
3.3615893620558533e-28
1.5781196698460368e-09
3.444488475754975e-09
3.5120305167863754e-09
2.050532438552107e-09
5.208022074533154e-10
6.006354244614717e-11
4.099352475487789e-10
1.172711511272091e-09
2.1288876655881808e-09
2.2383581104864907e-09
1.2679483886012372e-09
1.5963798210373914e-09
2.781989308046739e-09
3.0590359968116296e-09
2.27910280099475e-09
9.133962655600282e-10
3.5586191293588276e-10
3.336663961493636e-10
2.821510821199488e-10
1.302003886948609e-09
3.1356929290264254e-09
3.693870398371038e-09
3.2323583917177405e-09
1.921976393423961e-09
6.854148397749877e-10
5.893366576196016e-10
5.612181267567969e-10
6.602876134488806e-10
5.103444494130587e-10
4.2205864730948196e-10
6.815856577981637e-10
8.641810695423273e-10
7.616885725776168e-10
6.438650528480473e-10
2.0344334789513164e-10
1.073371839820213e-11
2.8659304876008783e-10
1.3506698381636183e-09
2.578057868575873e-09
2.4180518647850843e-09
2.224115004987444e-09
2.5858085846715365e-09
3.6734457962388092e-09
5.8173431570853655e-09
7.46623724771938e-09
8.058856180738927e-09
8.381093522139417e-09
7.377805384032473e-09
4.4594410373825455e-09
1.899543404171998e-09
2.3905886726246145e-09
4.689659767085247e-09
4.6265562972317556e-09
2.3082114695068126e-09
5.139424893601623e-10
1.5169606205740619e-09
3.892379842021486e-09
4.396665199639313e-09
3.4249975277819404e-09
2.1841194883161226e-09
1.3384313652873087e-09
5.563901303518753e-10
1.095739546206319e-09
4.847958893011741e-09
1.0362789171787199e-08
1.2306981492169766e-08
1.0283367679791354e-08
8.459791290372776e-09
9.76576213490002e-09
1.2217106390047818e-08
9.776758217031824e-09
2.938574938992328e-09
2.4702296728642473e-10
7.210382357780726e-09
1.5332602767075824e-08
1.3105948249717309e-08
5.0404397990804146e-09
3.2584539888606988e-09
1.8856811604762735e-08
4.169630796549055e-08
4.6748886108030735e-08
3.044028517437679e-08
1.19218131595312e-08
6.083485092932703e-09
1.1427993562779163e-08
1.3173665481748601e-08
6.19353057755529e-09
3.3909367569493754e-10
4.519647130002289e-09
1.2238704792796289e-08
1.2293221984380856e-08
5.0683253817919785e-09
1.458940618990262e-09
1.1719724785954063e-08
3.2390647099877895e-08
4.765860913262519e-08
4.094790964420536e-08
1.735910325566322e-08
4.930463800607945e-10
8.882604942026255e-09
3.2852646663420295e-08
4.4859421546959856e-08
3.487848905196268e-08
1.9932112597965952e-08
1.4249412645058573e-08
1.86277567272599e-08
1.512591073258042e-08
7.888568283453676e-09
1.6488666436685906e-08
4.4759162935308884e-08
6.505062983187164e-08
5.23679355167963e-08
1.747949990428729e-08
1.4495924184479238e-09
2.0860868872997956e-08
4.7290396940592834e-08
5.7094269786580786e-08
4.4859464722054117e-08
3.2503132188246884e-08
2.7592017372714427e-08
2.6751488030498168e-08
3.233873694381024e-08
5.944580135154175e-08
9.717443061664257e-08
1.193120630535548e-07
1.0055814411639433e-07
6.121686820908649e-08
2.4767652538940253e-08
1.254149260956916e-08
1.8534763763704825e-08
3.457948326345369e-08
5.1660741590100037e-08
6.025571311878897e-08
4.3130922779741665e-08
1.7763443421416537e-08
1.1981023403612652e-08
5.210498855462674e-08
1.205989327708558e-07
1.740366785716662e-07
1.6051561297761973e-07
1.0932822666065696e-07
4.615724334357323e-08
2.6557066922190785e-08
5.233079728169949e-08
9.444276599483734e-08
1.0773613733268349e-07
9.384809065686504e-08
5.736996242991204e-08
2.8843434565449664e-08
1.044476421028132e-08
2.390343055488634e-08
7.165025776048982e-08
1.2939502623021807e-07
1.4114929289043625e-07
9.948030373570787e-08
3.109269158201455e-08
1.3443851858036593e-08
4.859615822706185e-08
8.959049820633992e-08
9.254100369302999e-08
7.257943170746633e-08
5.102991357910613e-08
3.418736255809597e-08
1.0349948140205468e-08
5.51888418301635e-09
4.7113841570472163e-08
1.1627717128160364e-07
1.3945739522830715e-07
9.062370248016376e-08
2.0499852452472087e-08
4.237407267296052e-09
4.9380406460822207e-08
9.868890585928507e-08
9.929339672957879e-08
6.732396767808928e-08
3.329273581872179e-08
1.2846343299502962e-08
2.96221540454662e-09
4.1615655883257394e-09
1.8430675311706563e-08
3.768785666700765e-08
3.7450447219034635e-08
1.8199823446983572e-08
1.9522513418541803e-09
1.2775310532386864e-08
4.698217636876726e-08
7.841200003027517e-08
8.309409782437915e-08
5.684089255081162e-08
2.8630936189010114e-08
1.7457350745628334e-08
2.4294617863593984e-08
3.147500220035958e-08
3.7191564976576254e-08
3.1685409764121826e-08
2.388668357104573e-08
1.6328482701200797e-08
6.938378531201593e-09
6.004999041844315e-09
2.0518723979451756e-08
3.9542066074214306e-08
4.5246961016553465e-08
3.2372590820945533e-08
1.555078324553397e-08
2.217153919697144e-08
5.019548051077422e-08
7.270145388154587e-08
6.754931380051676e-08
5.031109145970015e-08
3.619362852120727e-08
3.7238997632349835e-08
4.281158476227413e-08
4.772569223482494e-08
4.290757741768905e-08
3.528396422669974e-08
2.9453623666166104e-08
2.2149009231990715e-08
2.2097185107212704e-08
2.5849775872436813e-08
3.1940047470093775e-08
3.015268595524927e-08
1.945493087525019e-08
1.0697256305714493e-08
1.0427721222829156e-08
2.2451604383027334e-08
3.759976857129905e-08
4.4440806991634413e-08
3.413895453511898e-08
1.3743311991680498e-08
4.826247409830268e-10
5.3594142321154675e-09
2.1494046988658337e-08
3.2587522715079706e-08
3.053274867584542e-08
2.1843734789177108e-08
1.2780803404830036e-08
8.36277711834295e-09
7.446184822851162e-09
6.8306923471828855e-09
6.302263897824319e-09
1.1480367934683408e-08
2.6398447129600335e-08
4.281487071858685e-08
4.737757255301354e-08
3.5877735468632145e-08
1.535291428122875e-08
2.1856366532692023e-09
1.2700942602522458e-08
4.79247877386506e-08
8.658492935602809e-08
9.610224050672043e-08
6.822650037791868e-08
2.1979947870318418e-08
7.66964298191916e-10
2.6107423054431935e-08
7.976220246049375e-08
1.1849796067889713e-07
1.0852460616473133e-07
6.434949516550773e-08
1.5762106211318097e-08
7.12564345101714e-10
2.7039358703454017e-08
7.415505222672018e-08
1.0493825681429147e-07
9.568859260890781e-08
6.166197823477726e-08
2.153204749590487e-08
3.071527659589539e-10
1.2372153802925866e-08
4.302979938945318e-08
7.819961499536619e-08
9.217143989351582e-08
7.679669091303243e-08
4.655647017985013e-08
1.3637412925531829e-08
2.1784238566135662e-09
5.797516836891507e-08
3.606619566665999e-07
1.0353901362856003e-06
1.1593822621385317e-06
5.955874305973591e-07
6.437362447176371e-08
3.1830581175270084e-07
1.0112844751142343e-06
1.2891064850807311e-06
7.011719356841062e-07
9.256794658727952e-08
3.4913375772146336e-07
1.3784290475342074e-06
2.0823778329255544e-06
1.791277269152749e-06
8.090786688228836e-07
2.8075436504645566e-07
5.65335109684265e-07
1.0285911008522256e-06
9.043445432051128e-07
3.2713680721486093e-07
9.662532530204273e-10
3.395171321243498e-07
8.584634350762317e-07
8.956810364264382e-07
4.218537253876331e-07
6.65161767874403e-08
2.951880189870141e-07
7.938412415188658e-07
9.116122435837799e-07
5.393701835505994e-07
1.4757734867645268e-07
2.0623563217102208e-07
5.617505750518877e-07
6.482421948934272e-07
3.216199811170455e-07
2.2386835543708848e-08
2.1362790887914997e-07
7.631398683645804e-07
1.1310371006692682e-06
9.63687334244505e-07
5.020908807943881e-07
2.520402105678193e-07
2.943105217833656e-07
3.5154588132994806e-07
2.1993681730775213e-07
3.7293681649160847e-08
6.224849854464681e-08
2.975540384138098e-07
4.540256524783151e-07
3.4224859755754745e-07
1.0404072084896336e-07
3.939011064051544e-09
1.3546606735595338e-07
3.0188642468629586e-07
3.3003347823873953e-07
1.929087931880485e-07
7.466604236294521e-08
2.617623130539254e-08
2.1492170636203624e-08
4.639881389832393e-08
1.6042999759253997e-07
3.635123169315869e-07
5.131257426538247e-07
4.657835419818692e-07
2.3461311880674636e-07
4.3925752111638856e-08
7.696392798430417e-08
2.674657490464461e-07
3.7682300724811804e-07
3.035138967193128e-07
1.3121423171119154e-07
6.577114415653299e-08
1.6818325391907978e-07
3.2195701726697794e-07
3.8205828237715236e-07
3.5466507281856915e-07
2.645103297447873e-07
2.4854777868463214e-07
2.682229512203345e-07
2.760309406735187e-07
2.778497668458762e-07
2.535793785381327e-07
2.502369714467355e-07
2.2852138354336782e-07
2.0296098771331698e-07
1.3934300388039516e-07
8.76927606423328e-08
4.736615245603956e-08
4.221525550814592e-08
5.4330070534037266e-08
4.893253952840405e-08
3.881744740307356e-08
2.3678062985527978e-08
8.542206669365377e-09
1.0305257809121054e-08
1.585539745551082e-08
2.165309933183895e-08
1.4129599707876905e-08
9.61712132257675e-09
1.85675457354425e-08
5.4133320887565494e-08
8.429259102234197e-08
1.0139868646695872e-07
8.472078552326585e-08
3.931124389181897e-08
1.0833852309907533e-08
1.6704908802476314e-08
5.2807336238623004e-08
8.373612668301146e-08
8.123451689600841e-08
5.50756025865068e-08
2.354135694592184e-08
1.4517166145604779e-08
2.722652190467158e-08
3.335127551544502e-08
3.949188157771259e-08
2.6321741527127307e-08
1.3056508255947199e-08
4.817284688484687e-09
9.792255075981914e-28
1.3831578385647682e-28
6.856303910476978e-29
6.1627606813397105e-28
3.036624978888793e-09
6.076889281028635e-09
6.013497216306777e-09
3.5029276756736415e-09
7.408618300511128e-10
9.809290691067718e-11
6.840341989669475e-10