# vtk DataFile Version 4.1 
COMMENT
ASCII
DATASET STRUCTURED_POINTS 
DIMENSIONS 400 400 1 
ORIGIN 0 0 0
SPACING 0.002506265664160401 0.002506265664160401 0 
POINT_DATA 160000
SCALARS U double 1
LOOKUP_TABLE default
6.928033744261855e-07
1.3905125095389877e-11
6.524424902900297e-11
1.0129561975622187e-10
7.321450477478889e-11
6.214753557936924e-11
2.7035789209733118e-11
2.0436316185990487e-11
3.755741633539926e-11
7.19104741160983e-11
5.839933323567506e-11
2.9513488754548527e-11
5.0982957834398296e-11
1.0961059115058233e-10
1.501605929398417e-10
1.491322263824147e-10
7.947832474874083e-11
3.242956721878358e-11
2.9348281191684364e-11
9.534818201524406e-11
1.714015261869752e-10
3.0006786624774827e-10
4.039990757058744e-10
3.1016734601942823e-10
1.5735917919196513e-10
1.6106772400922136e-11
2.3647898785859166e-11
1.1022868814401113e-10
2.1507844857888685e-10
2.3238928475607013e-10
2.0145275532129236e-10
1.0035191973649109e-10
6.1923620690155e-11
9.898394479004517e-11
2.176942713227784e-10
2.824873661455555e-10
2.2509237710904912e-10
1.1332349693413935e-10
2.1055451287189477e-11
1.1658002646184853e-11
1.0866234640105052e-10
2.3743120230576264e-10
4.103753215231484e-10
4.718753638494085e-10
3.084368704565388e-10
3.324772873153068e-10
2.2792456201259947e-10
1.6018669445871547e-10
2.3178334653726837e-10
2.847288802547693e-10
3.7485774612268186e-10
5.044496321218851e-10
4.615041674742045e-10
7.75519319808148e-10
9.6732852105132e-10
1.2642262860409834e-09
1.014785531192941e-09
4.023258023361029e-10
3.492008947802341e-10
6.464438368148525e-10
1.3308376428027437e-09
1.8050948698004938e-09
1.3666574696387372e-09
8.764980304828937e-10
7.3435108010222e-10
1.1377066407210861e-09
1.5238244769131674e-09
1.473464317566016e-09
8.753134925216101e-10
4.765376110626864e-10
7.0655534015751e-10
1.149740219163521e-09
1.3018873248744308e-09
9.877552978350947e-10
8.942476889737226e-10
1.2281500091657296e-09
1.4484021671264277e-09
1.0023702328838987e-09
3.689844367740122e-10
2.6665808405362673e-10
6.261009655828912e-10
1.027285410543088e-09
8.656560196496645e-10
3.7606781827376493e-10
1.0735177993902694e-10
2.78278107739652e-10
6.545730796181582e-10
7.578977426859144e-10
5.610343349146884e-10
1.788665315937367e-10
4.396565679494416e-12
1.6259920915193425e-10
3.882618691246598e-10
4.029665418747074e-10
2.3215814764488792e-10
2.7846998164014123e-11
5.626696839361139e-11
2.1663502150291834e-10
2.9461610579738534e-10
1.985884976202756e-10
9.71884737418743e-11
1.5236735053674485e-10
2.739795685112135e-10
3.583840643089114e-10
2.248687541297216e-10
1.0066321371438781e-10
1.2473643431734466e-10
1.6879183891478148e-10
1.256579468982656e-10
3.9166814891701006e-11
3.811640752143255e-11
1.3749548153637592e-10
2.331162359595198e-10
1.781378846978974e-10
8.760875595634995e-11
1.1643705026350542e-11
6.046824271414799e-11
1.3228680102172344e-10
1.4416439304984802e-10
6.182434554945855e-11
2.2008915920701845e-30
2.001320302186014e-31
1.7954674865795442e-32
1.7815328942029875e-33
2.931082409550987e-15
1.4611671720492064e-15
5.086665004433112e-16
1.9938908001725992e-15
6.525703495123212e-15
1.1738234592387154e-14
2.120964638161337e-14
3.614210750148186e-14
3.723311674177282e-14
6.572328455592486e-14
3.989415234560851e-14
6.819948517444541e-14
5.5342803960694205e-14
1.6038039050509795e-14
3.5970847097482454e-14
6.163269122107673e-15
2.7126354707822812e-14
1.6672530118798734e-14
1.4132450577294234e-13
5.512521952369407e-14
1.68964424719021e-13
2.0778948909111866e-13
1.3648013153640497e-13
2.4321010047982346e-13
2.2176915629413225e-13
3.230744277627859e-13
2.4383813346242933e-13
4.798046623908879e-13
4.921237203971979e-13
4.268888646833351e-13
1.0850226987474505e-12
6.271411536151914e-13
1.8120733012451157e-12
1.94604081268431e-12
2.583625569686828e-12
3.940537233692932e-12
4.311971601045072e-12
6.539814465070292e-12
5.7723450431438066e-12
9.246486347583398e-12
9.347591457580633e-12
8.214262126346867e-12
1.208581141439689e-11
9.887666082284485e-12
9.784896833572759e-12
9.336160239776e-12
9.409202887500782e-12
8.229583918535603e-12
4.9950445128028974e-12
7.490967573764982e-12
5.552617680525422e-12
1.896371717138016e-12
2.1203292944833428e-12
3.1586280751731703e-12
4.530844730475392e-12
3.807635378161634e-12
3.2481100849959293e-13
3.514432695658821e-12
1.628305581073704e-11
2.2586298289535534e-11
1.164959545961393e-11
1.3698262269406023e-12
2.5259799672611283e-11
5.153443804891782e-11
3.2243287665478804e-11
5.7670479567792655e-12
8.089356836583554e-12
2.0250251462932167e-11
1.4782562149577305e-11
1.9668233900560348e-12
2.799871168930956e-12
2.3741620280236667e-12
1.8249241523630734e-11
5.886382764035248e-11
7.197449815013227e-11
4.29562615782119e-11
7.355846065249477e-12
4.489790576481688e-12
2.3241402580457206e-11
1.8129522082478652e-11
3.726316348217113e-12
5.005541104884013e-12
7.709386785852072e-12
9.169522564408549e-12
1.3691607718756423e-11
1.9824552906086602e-11
3.256594556836347e-11
4.921623157549311e-11
4.859599817259404e-11
3.2314055315156806e-11
2.7878128483977522e-11
2.5303340529669975e-11
1.0525545619255461e-11
2.2615857623621834e-12
7.792973524779327e-13
1.2202573505827808e-12
5.038672629927327e-12
3.434429319041871e-12
1.4925574455288794e-12
1.1491960630937462e-12
5.340579724960908e-13
9.076530366873662e-12
1.585408447336378e-11
1.4155899894495301e-11
1.4269937610524914e-11
1.069898826875242e-11
6.012368499526218e-12
7.2968436627963e-12
9.915302492019246e-12
1.560443920494694e-11
1.51433828690735e-11
1.035834379798591e-11
2.342549155711225e-11
3.559862097668292e-11
3.189386708934279e-11
3.815672834598111e-11
4.2584833321405416e-11
2.5471251386571785e-11
1.2219596194944494e-11
1.0585307275989342e-11
8.075800536114323e-12
6.6726861623222666e-12
4.7223769450385995e-12
1.9062941307865746e-12
1.3475505548296414e-12
3.3188499228897205e-13
2.460543018977299e-13
1.834944690016959e-13
3.3221275238732086e-12
1.4270541469859497e-11
2.1008976302472156e-11
3.761732899265695e-11
7.923799682462793e-11
9.438802742928205e-11
8.036224118104756e-11
1.1062083585402136e-10
1.5803574296325939e-10
1.7322854521545003e-10
2.21577290275827e-10
2.929838978246254e-10
2.918065821472541e-10
2.6749999275846393e-10
2.9746729684783877e-10
3.196162408641154e-10
2.8945399979191905e-10
2.3828403087779883e-10
1.8753797483993908e-10
1.687320904443996e-10
1.7792155020468214e-10
1.4991320434265622e-10
9.608212751637992e-11
6.679973237418097e-11
3.805429265345325e-11
1.0987208879287026e-11
2.3104797839883925e-11
3.681935304383305e-11
6.145851973076496e-11
1.648970508923059e-10
2.940036769027054e-10
3.5795590601191815e-10
4.754954454760163e-10
7.651275101186068e-10
1.172619237818744e-09
1.5090875117256926e-09
1.6716688850849144e-09
1.8031227991224473e-09
2.0483382388185106e-09
2.222628846110197e-09
2.142504738490984e-09
2.044625092393206e-09
2.191465765248461e-09
2.3124920843017882e-09
2.0306048352213243e-09
1.6071723399945408e-09
1.3702922797278396e-09
1.2850393607527418e-09
1.148088639001097e-09
9.771243635638093e-10
7.534738524916405e-10
6.591117374892606e-10
8.271500696511833e-10
1.1092615876405262e-09
1.2521831168137978e-09
1.403130473771936e-09
1.7378525719882277e-09
2.072543204261715e-09
2.276365704864227e-09
2.4910803715451794e-09
2.6570364948672838e-09
2.574245414096665e-09
2.3886148284678807e-09
2.40393043849304e-09
2.5957202828173443e-09
2.7929960614802372e-09
2.889714685630376e-09
2.984046084143752e-09
3.3480035608299882e-09
4.040331975459745e-09
4.838200621074931e-09
5.5304039247293985e-09
6.001887403351843e-09
6.208851572794463e-09
6.35405269113456e-09
6.4327478816822445e-09
5.904115183594468e-09
4.714424860865099e-09
3.3688145936389264e-09
2.1688026798498933e-09
1.185425894046128e-09
5.346818929241997e-10
2.357981377646727e-10
4.406400480558339e-10
1.1787258388991417e-09
2.158658104369559e-09
3.639531381478787e-09
5.9028969679188325e-09
8.116059718862495e-09
9.534649070558536e-09
1.030912559613474e-08
1.0490638741997333e-08
1.0324271506155029e-08
1.0124654976755089e-08
9.29475805239405e-09
7.561156566373491e-09
5.587560382031169e-09
3.7693757367481955e-09
2.2444142529391074e-09
1.2651236213136117e-09
6.939710023400024e-10
3.7457972522850144e-10
4.791486294113597e-10
8.762709572106934e-10
1.389613224876157e-09
2.0827527546298007e-09
3.0331112436442962e-09
4.281573360414846e-09
5.260740328285898e-09
5.327313486762472e-09
5.010471135943181e-09
4.899942450170972e-09
4.672301344519614e-09
4.188520440186607e-09
3.4945070510621393e-09
2.3949948976617198e-09
1.3153795345332008e-09
7.615651473247668e-10
4.3989981815098656e-10
2.979716991041474e-10
5.686040048841563e-10
1.196229944677979e-09
1.715100676177226e-09
1.9024113644329334e-09
2.2787389076226356e-09
2.775461052168904e-09
3.0040753360412134e-09
3.1454408145352873e-09
3.0432670129475958e-09
2.3326075595523883e-09
1.4096567543803795e-09
6.995078204975055e-10
2.7291113613169674e-10
1.2202509805677707e-10
2.5905866484644486e-10
4.2796956811178155e-10
2.1642877316776958e-10
9.372600890632809e-11
6.293876081193868e-10
1.3810997594336051e-09
1.5403382687692229e-09
1.0238906722825732e-09
5.530897390137333e-10
6.067706451320162e-10
9.329791876008544e-10
7.511884039689046e-10
2.1631073134170016e-10
3.916461869613564e-31
9.072709430764798e-12
8.778156113188169e-11
4.1187993602027755e-10
6.394683670246636e-10
4.621953044319862e-10
3.923307166409374e-10
1.7067403327782245e-10
1.2901226895008295e-10
2.3709593515950635e-10
4.5396309895390325e-10
3.6866871785196313e-10
1.8631548436636797e-10
3.2184993656102733e-10
6.919598882987794e-10
9.47947693985038e-10
9.414557263682426e-10
5.017381271099975e-10
2.0472437448548543e-10
1.852725467674954e-10
6.019228313997596e-10
1.0820394240155466e-09
1.8942962083435657e-09
2.5504027700589746e-09
1.958053139323774e-09
9.933915957708192e-10
1.0168032408551363e-10
1.4928664493638227e-10
6.9586186822646e-10
1.3577671435935022e-09
1.467048592966093e-09
1.2717496056389274e-09
6.335108901660325e-10
3.90917165996764e-10
6.24875011267817e-10
1.3742805516015467e-09
1.7833123995778807e-09
1.4209839987753488e-09
7.153990636949279e-10
1.3292080234061044e-10
7.359571848087864e-11
6.859737210490787e-10
1.4988776768883214e-09
2.590655325009848e-09
2.9788984862932914e-09
1.947128832971336e-09
2.0988934023403324e-09
1.4388632778571475e-09
1.0112413959370803e-09
1.4632233700766182e-09
1.7974628373809292e-09
2.3664366865665353e-09
3.184536342987925e-09
2.913426237581014e-09
4.895770164862763e-09
6.106641049452443e-09
7.980924749064744e-09
6.406232056962629e-09
2.539839575007416e-09
2.204467739928623e-09
4.0809305051491195e-09
8.401435089356371e-09
1.1395370021861374e-08
8.627561808646347e-09
5.533237918896317e-09
4.635879489615548e-09
7.182219818052318e-09
9.619740243743582e-09
9.30182196713571e-09
5.525760057981862e-09
3.0083307521633767e-09
4.4604079689766284e-09
7.258186506193089e-09
8.218674841923995e-09
6.235593097180996e-09
5.645289606399603e-09
7.753179088223063e-09
9.143607303418767e-09
6.327855612305755e-09
2.3293591155198965e-09
1.6833838420068934e-09
3.9525081441565954e-09
6.48514245264687e-09
5.464793469082257e-09
2.3740757420784834e-09
6.777002557465869e-10
1.7567398033917298e-09
4.132249541777628e-09
4.7845270412817795e-09
3.541749493769474e-09
1.129165201307598e-09
2.7755046885038542e-11
1.0264713420592161e-09
2.451055475296992e-09
2.5438844948906794e-09
1.465589449210399e-09
1.75795108271571e-10
3.5520732764835044e-10
1.367593621266285e-09
1.8598798302119833e-09
1.2536678544317674e-09
6.135403953981768e-10
9.618787176591813e-10
1.7296035869628628e-09
2.262440102768658e-09
1.4195722909269357e-09
6.354760556113823e-10
7.874477114938839e-10
1.0655647485812982e-09
7.932651214345345e-10
2.4725589537463604e-10
2.406247864738489e-10
8.679942060963156e-10
1.4716377578292465e-09
1.1245653317205293e-09
5.530646660072216e-10
7.35054591426191e-11
3.81729521161177e-10
8.351123654888554e-10
9.100943281511002e-10
3.9029045269701736e-10
1.389399221571954e-29
1.2634120099290753e-30
1.133459338569648e-31
1.1246625800783769e-32
1.850360841427359e-14
9.22419140836502e-15
3.2111569797533623e-15
1.2587218451107369e-14
4.11960652173932e-14
7.410221413927604e-14
1.338942194091052e-13
2.2816124251397216e-13
2.3504866665903083e-13
4.149040358469506e-13
2.518474985954411e-13
4.3053602437480123e-13
3.4937317685089187e-13
1.0124641782723617e-13
2.2708009397916832e-13
3.8908055950816603e-14
1.7124576353932402e-13
1.0525189178856752e-13
8.921664248136466e-13
3.479995896715714e-13
1.0666542642254522e-12
1.3117527252783823e-12
8.615844106085887e-13
1.5353592403306676e-12
1.400004862728879e-12
2.0395341599774023e-12
1.5393239450907667e-12
3.0289552962735604e-12
3.1067241862367756e-12
2.6949035492060114e-12
6.849631751328596e-12
3.95907473947448e-12
1.1439424109994946e-11
1.2285146619818651e-11
1.6310150705695468e-11
2.487618829021211e-11
2.7221013554316596e-11
4.128514625496333e-11
3.644019423076143e-11
5.837207511672108e-11
5.901034081610052e-11
5.185575448266047e-11
7.629642928225151e-11
6.241977391066058e-11
6.177100268232717e-11
5.893817676596468e-11
5.93992871552997e-11
5.195247931098373e-11
3.153317947513106e-11
4.728967366366273e-11
3.505307899219176e-11
1.197159095475615e-11
1.3385411084515703e-11
1.9940079759916555e-11
2.860273611052602e-11
2.4037193151669333e-11
2.0504970076370053e-12
2.2186236110895534e-11
1.0279318231649308e-10
1.4258487503309926e-10
7.354264481510003e-11
8.64756583312635e-12
1.5946240209486163e-10
3.253313719189815e-10
2.0354841167437298e-10
3.6406754293519587e-11
5.106724080487349e-11
1.2783766233924094e-10
9.332072700656109e-11
1.2416344798441229e-11
1.7675285946071133e-11
1.4987829866345274e-11
1.1520550152750346e-10
3.7160102113581657e-10
4.543672758037272e-10
2.711782652696216e-10
4.6436666094250876e-11
2.834356564612575e-11
1.4672047805477687e-10
1.1444972555497014e-10
2.352383485037459e-11
3.159944333346558e-11
4.866853068844108e-11
5.788621102047188e-11
8.64336488677998e-11
1.2515027307555987e-10
2.0558531635753522e-10
3.1069678345844907e-10
3.067813166072613e-10
2.039951602454038e-10
1.7599163063768972e-10
1.5973727084860624e-10
6.644663891081498e-11
1.4277147993412057e-11
4.919620479296173e-12
7.703353582365379e-12
3.180859909229772e-11
2.168118338773908e-11
9.422354833109467e-12
7.254751307374194e-12
3.3714506154408622e-12
5.729916126603257e-11
1.000851323408808e-10
8.936467550208657e-11
9.00845833542146e-11
6.75415637270427e-11
3.7955436529193094e-11
4.606419026520648e-11
6.259423959679827e-11
9.850914857658635e-11
9.559854945179795e-11
6.539111177283898e-11
1.4788261199079647e-10
2.2473027046059533e-10
2.0134255710964204e-10
2.408793275082314e-10
2.688334785807355e-10
1.6079727405236885e-10
7.71409982315843e-11
6.682390783057944e-11
5.0981661336138145e-11
4.212395100752811e-11
2.9811858407957133e-11
1.2034230086320347e-11
8.506941907793216e-12
2.0951543074594413e-12
1.5533143783768637e-12
1.1583808730620352e-12
2.0972234217545254e-11
9.008839545333131e-11
1.3262741075412136e-10
2.374741573293581e-10
5.002209627394868e-10
5.958614786319502e-10
5.073181966027724e-10
6.983374545978767e-10
9.97662670187055e-10
1.0935731988961725e-09
1.3987936331642793e-09
1.849575876600787e-09
1.8421436091888997e-09
1.6886987212283416e-09
1.8778790930576674e-09
2.017702997541346e-09
1.8272920094782919e-09
1.5042614920584577e-09
1.1839070910925755e-09
1.0651875629055575e-09
1.123199635302063e-09
9.46385956343831e-10
6.065561505129253e-10
4.2169953529879346e-10
2.4023266198425824e-10
6.936106948262194e-11
1.458581070007031e-10
2.3243662087765943e-10
3.8798103359816166e-10
1.0409773701474281e-09
1.8560136323828742e-09
2.259737185429634e-09
3.0017516727571697e-09
4.830167786511218e-09
7.402619293452714e-09
9.526707365461053e-09
1.0553066112076681e-08
1.1382920551497479e-08
1.2930939282900177e-08
1.4031217165604037e-08
1.3525402280598415e-08
1.2907498588358524e-08
1.3834487983453115e-08
1.459851413580097e-08
1.2818990210794461e-08
1.0145906350707626e-08
8.65050797431192e-09
8.112315454119125e-09
7.2477602580293755e-09
6.16848115103006e-09
4.756599497669954e-09
4.160901601405697e-09
5.221709542792841e-09
7.0026492533316426e-09
7.904897515330023e-09
8.857811966053651e-09
1.0970876618489361e-08
1.3083742629808008e-08
1.4370452182865122e-08
1.5725922810411977e-08
1.6773585991050265e-08
1.6250934791008193e-08
1.5079068843126674e-08
1.5175754644115353e-08
1.6386503330555415e-08
1.76318841312127e-08
1.8242458416606345e-08
1.883796240297487e-08
2.1135586859422993e-08
2.5506181775703884e-08
3.0543040833771744e-08
3.4912845937904194e-08
3.788927049485336e-08
3.919581306584107e-08
4.0112452129391424e-08
4.060924641440918e-08
3.7272044973561404e-08
2.9761657754729393e-08
2.12669646741642e-08
1.3691418359648662e-08
7.483466338611034e-09
3.3753893580861645e-09
1.4885683158532643e-09
2.78171329277667e-09
7.44116961014311e-09
1.3627376744303595e-08
2.2975970677214833e-08
3.7264354508853676e-08
5.1235813232455824e-08
6.019121543435536e-08
6.508040255124182e-08
6.622627554414713e-08
6.517601705432776e-08
6.39158593456953e-08
5.8676809204167834e-08
4.773276923476921e-08
3.52736685134868e-08
2.3795664145020483e-08
1.41687460988726e-08
7.986589530255106e-09
4.380964396059904e-09
2.3646815705247132e-09
3.024813830540464e-09
5.5318044297196035e-09
8.772479025706847e-09
1.3148194424640283e-08
1.9147705484651324e-08
2.7029112726393204e-08
3.3210488619012016e-08
3.363075781763226e-08
3.1630566089991217e-08
3.093281036896169e-08
2.9495736520666077e-08
2.6441679636113164e-08
2.2060447656835842e-08
1.5119345534643125e-08
8.303849712257104e-09
4.807678972838833e-09
2.777040300897902e-09
1.881063330322235e-09
3.5895360072035267e-09
7.551671149751228e-09
1.0827246344090617e-08
1.2009718599390544e-08
1.4385433956965434e-08
1.7521187500923392e-08
1.8964404918795597e-08
1.9856829999996733e-08
1.9211817765398398e-08
1.4725500970388511e-08
8.89901167452544e-09
4.415917734360334e-09
1.7228586881148164e-09
7.703313369144846e-10
1.6354095248306175e-09
2.701725913867877e-09
1.3662915976803038e-09
5.916822268061333e-10
3.973256365460385e-09
8.718734432827402e-09
9.723990037930054e-09
6.463711834648265e-09
3.4915961132019753e-09
3.830477907483647e-09
5.8897973969547686e-09
4.7421717066334795e-09
1.3655464123115893e-09
2.892222729378999e-10
4.6993533960280456e-11
3.054372938573381e-10
1.6544185045990776e-09
2.333774290182756e-09
1.7450084031970494e-09
1.0076502350497446e-09
3.8607291189487394e-10
5.967996565333582e-10
1.2948217074723878e-09
2.03590226298831e-09
1.5767366216111966e-09
5.76947589341132e-10
9.782089871501898e-10
2.473707407731832e-09
4.064658555837413e-09
4.8419831853588015e-09
3.421541694873264e-09
1.722110657265513e-09
6.018277236329745e-10
1.1637058700405107e-09
3.2687639968382215e-09
7.18229508075579e-09
1.1742166558367317e-08
9.882656395013862e-09
5.8524923366770145e-09
1.4039826748959032e-09
1.9590651305681428e-10
2.281295841199992e-09
4.662281726574362e-09
5.6337324517906096e-09
5.314682839480863e-09
3.1837106484997915e-09
1.924685164572341e-09
2.4560054712226163e-09
4.983947224641624e-09
6.282209200550918e-09
4.936582279094667e-09
2.965646261804603e-09
8.290362869084912e-10
2.0763744428853194e-10
2.0060876505648946e-09
4.718196101246997e-09
8.950172749845883e-09
1.1304715325156575e-08
7.527314322174075e-09
8.049706391287187e-09
5.69349129827675e-09
3.125513836113825e-09
4.118640145475935e-09
5.460939926791543e-09
8.925950757570623e-09
1.0767492765637125e-08
9.278905577865866e-09
1.553228014507998e-08
2.072061106461757e-08
2.4851474587291595e-08
2.1292786400806642e-08
7.909739633731237e-09
6.571163438943141e-09
1.262652298725995e-08
2.344072432793093e-08
3.2508175642370976e-08
2.462636148954355e-08
1.5248525442001397e-08
1.3037044337220378e-08
2.2414809723835133e-08
3.1226224903698674e-08
2.9410623362945594e-08
1.7971889785924045e-08
8.605190398332355e-09
1.2360510773519808e-08
2.1199118155200425e-08
2.375491725749087e-08
1.712171299728965e-08
1.5301605384778448e-08
2.371020502677108e-08
2.8821196779942614e-08
2.214495210407908e-08
7.943236787319721e-09
3.217684769327916e-09
9.75766428394e-09
2.0661746178292966e-08
2.1954801417677717e-08
1.0813912968303114e-08
2.5302667433764075e-09
2.9011286405040806e-09
1.1636053499251492e-08
1.9143115600119268e-08
1.7755796527692005e-08
8.502763243039561e-09
7.121633087482083e-10
3.960900408479441e-09
1.4999135919906617e-08
2.1034668972756396e-08
1.3863763366399272e-08
2.152858833925065e-09
1.5912887469591807e-09
1.2260130490410132e-08
1.8822376857959317e-08
1.1840499900168678e-08
1.4475763064370858e-09
3.6832487204460015e-09
1.7392833417091486e-08
2.4316695505742366e-08
1.3898018696319385e-08
1.708867039255829e-09
2.081958476329114e-09
1.1601832590477829e-08
1.3580725424236547e-08
6.0863002548005274e-09
2.3208659682091373e-10
2.5604901851346485e-09
8.170510696703394e-09
8.673549930163079e-09
3.9086135227177716e-09
5.697049005250934e-10
3.0282710546994933e-09
6.100396359117711e-09
6.566335788980071e-09
2.9987483075204036e-09
5.08896621203891e-28
4.63491298028287e-29
4.081118291760181e-30
4.0180586447010335e-31
1.9125806496607327e-13
9.530615337260629e-14
5.399856551650476e-14
5.994557035013074e-14
1.0045299811782542e-13
3.9648332877070665e-13
6.100921960585946e-13
1.0151075490541603e-12
1.3170145965327435e-12
1.3185564442548659e-12
1.3184332577508852e-12
1.1124485523585916e-12
9.178697901664564e-13
2.0037862593752339e-13
1.9086237273680786e-13
3.535018676473803e-13
3.090322560777644e-13
9.107838751283997e-13
2.534821551764053e-12
1.1648178943537012e-12
3.2853853776212616e-12
3.5220304720277764e-12
1.9184178928427327e-12
4.713018580660333e-12
3.998155574417597e-12
4.7317910429941e-12
6.455397522843376e-12
6.431567962048619e-12
8.134308519068673e-12
7.740559341134734e-12
1.3925028474169476e-11
1.1930238141768213e-11
2.7128179538951615e-11
3.04170289646952e-11
4.333311874282062e-11
6.827860021565501e-11
6.885498860385932e-11
1.089194352892851e-10
1.104440006958609e-10
1.4315496276867702e-10
1.584464661571053e-10
1.5105822960722556e-10
1.9229466128610995e-10
1.5930301996218696e-10
1.6845801733747197e-10
1.636501454038794e-10
1.389735763924822e-10
1.3315148560770804e-10
9.993944310376035e-11
1.1992134433240282e-10
8.864488143514226e-11
3.4550913586669335e-11
4.672937215539872e-11
6.890439029778002e-11
7.49957207777939e-11
4.595101995076224e-11
6.340376626764064e-13
8.344274070898738e-11
3.112862328804094e-10
3.7930099801231614e-10
1.4565935773157123e-10
4.360803364536806e-11
4.984604284539429e-10
8.288054991439802e-10
4.2743792109854446e-10
6.17335323712242e-11
1.6904330447869559e-10
2.5448705913867146e-10
7.886842161215868e-11
1.4616898637086006e-11
1.2355347936878734e-10
3.8033995704484546e-11
2.457201177039429e-10
8.965754750627193e-10
1.0100824993404952e-09
4.5122652581115593e-10
2.2419443805937396e-11
2.2317023704697798e-10
6.131557907267666e-10
4.746072887014867e-10
1.1667376569842002e-10
4.108738742105272e-11
7.480466612951161e-11
5.763931959283807e-11
4.708981972184892e-11
9.347734035798556e-11
2.6389567129701867e-10
5.273785001739134e-10
5.478882808954278e-10
3.680801143362551e-10
4.719964752969812e-10
5.681760163846384e-10
3.317764382438772e-10
1.831025707016909e-10
1.315984183845324e-10
4.039181824544108e-11
4.534370994812619e-11
3.187098152241082e-11
3.057875949444421e-12
7.110976738934004e-12
1.3383618392673272e-11
1.5165971120283923e-10
2.5069967692577017e-10
1.7246758769078335e-10
1.2736518699309693e-10
8.321270443444547e-11
1.436468954589045e-11
3.3792122153618384e-11
1.0420941732512943e-10
1.8659372627836584e-10
1.6311231728594032e-10
1.3204029595972732e-10
3.4868038373793837e-10
4.89229263786122e-10
4.124203674291053e-10
4.852857741432596e-10
4.876886170093817e-10
2.0697655633987145e-10
3.48370014105225e-11
3.0206287963356184e-11
1.8245149691528e-11
1.6114364002156452e-11
8.048311126961608e-12
2.6439757056238032e-11
5.674721570201731e-11
7.879028416552089e-11
1.512934003536347e-10
1.4903790499788796e-10
2.57750326870769e-10
7.027704110477541e-10
1.0248262386424536e-09
1.5023061135653424e-09
2.6259981407719843e-09
3.102737670858e-09
2.817800954438439e-09
3.7082100523697376e-09
5.083142409369546e-09
5.508821457474928e-09
6.679459876948717e-09
8.560901823403376e-09
8.60406885512333e-09
7.867424497821355e-09
8.481234601928757e-09
8.88432219016128e-09
7.817980240221347e-09
6.372746006359363e-09
5.185734953016542e-09
4.5299044653373124e-09
4.210846753498591e-09
3.1650940634150505e-09
1.8278551683460506e-09
1.1789162393871023e-09
5.751332772845304e-10
1.0520819354776146e-10
5.605643113665697e-10
1.0740267676147593e-09
2.2580680602520724e-09
5.897277977564551e-09
9.817003712336026e-09
1.1750083575131246e-08
1.5826489454192774e-08
2.4622065718123014e-08
3.402976524624587e-08
3.976473658761226e-08
4.3828252005775006e-08
4.94818619907744e-08
5.566366686528985e-08
5.7612024067446356e-08
5.490468374578819e-08
5.3538415806822986e-08
5.5942735522356065e-08
5.3886345722356875e-08
4.3877795040218145e-08
3.4762086751876424e-08
3.108664256917822e-08
2.779172805382559e-08
2.248126657592644e-08
1.8777781067990184e-08
1.6223640618773378e-08
1.6807898616787374e-08
2.3319220324284743e-08
3.215168287879005e-08
3.7358323974694745e-08
4.3431922634485543e-08
5.372917158754343e-08
6.217130591873076e-08
6.619422856787518e-08
6.951863250008798e-08
6.997728913979373e-08
6.434557520351303e-08
5.871468313596701e-08
5.792308709065189e-08
5.8435328586047834e-08
5.8782276307698124e-08
6.155784634184217e-08
6.827367997632582e-08
7.96291698111025e-08
9.732797927376727e-08
1.2050146075847642e-07
1.4192857336294985e-07
1.5447627375332715e-07
1.6188812382028497e-07
1.7037279851560907e-07
1.7037289337281125e-07
1.504504595068394e-07
1.1964645138778307e-07
8.803551026383552e-08
5.606149345347343e-08
2.8770998521679614e-08
1.1859117055537917e-08
5.578219831021661e-09
1.2723141456357663e-08
3.2805018741210475e-08
6.172962432512897e-08
1.0552151309952267e-07
1.630595076835255e-07
2.1516712571924944e-07
2.498392090589017e-07
2.6549403895469185e-07
2.653233379146661e-07
2.6115790555653486e-07
2.5110830429263196e-07
2.2001408566581834e-07
1.7412687020097438e-07
1.2787359614792362e-07
8.366331926489482e-08
4.778419808687912e-08
2.6102467010237182e-08
1.4035045741957821e-08
9.511901814209426e-09
1.4654436923667385e-08
2.6361607015203628e-08
4.135672907635365e-08
5.879693343413337e-08
8.281703015176736e-08
1.1449939562936547e-07
1.3669497907943872e-07
1.379062172223137e-07
1.3218403913100389e-07
1.2693837544924375e-07
1.1766451816423168e-07
1.0561439152828542e-07
8.618201115186044e-08
5.627209375547623e-08
3.057308102150767e-08
1.699387257226155e-08
8.398931611283815e-09
6.5303656830284636e-09
1.7570481508086922e-08
3.6789465192136175e-08
4.799133953340929e-08
5.1086517474049666e-08
6.347359561797928e-08
7.670719477515655e-08
8.067791092918512e-08
8.191592694362618e-08
7.589486011628201e-08
5.735721728609701e-08
3.456213062346976e-08
1.5551220936908912e-08
4.835851106184835e-09
2.5410292701300333e-09
8.037445122195928e-09
1.3379812524285716e-08
7.440368799077283e-09
2.715535048481083e-09
1.657794568311289e-08
3.954528183405046e-08
4.621205915526795e-08
3.0623918898616265e-08
1.5075673194212387e-08
1.4935868196548298e-08
2.2567835905598695e-08
1.8901040446060806e-08
6.135506212269774e-09
1.039755164531938e-09
6.465474409624676e-11
5.789085819545939e-10
2.0948666610956006e-09
3.4027106265141635e-09
2.6945182836270026e-09
1.4432958092288076e-09
2.8954889758143433e-10
2.7232724682014726e-10
1.5662049535123211e-09
2.71204022828405e-09
2.3937873536476666e-09
6.171251016647832e-10
1.2122476907755005e-09
3.0747760869482757e-09
5.5061845359537055e-09
5.589131138892396e-09
4.296278517855488e-09
2.501885396431659e-09
8.681130610780455e-10
1.8190049697235596e-09
4.468476341207888e-09
8.618942628285639e-09
1.341217510738161e-08
1.1645360484628344e-08
5.614550790789815e-09
7.585647394561079e-10
5.961227827193745e-10
4.00894669145281e-09
6.795316446290916e-09
8.246075380172898e-09
6.615060605674641e-09
3.019596231277147e-09
9.436946457599486e-10
2.3127363069353516e-09
5.950587485322182e-09
9.031379330897266e-09
7.853438192519149e-09
4.805855540794298e-09
1.4125530597608143e-09
4.414905880022203e-10
3.540443231150629e-09
7.692718491699123e-09
1.3643383641364598e-08
1.6210198741325443e-08
1.2098624332886166e-08
1.2391780871704483e-08
9.026480168705415e-09
6.586546073304263e-09
9.588333663746556e-09
1.0800458390658073e-08
1.716094615611012e-08
2.0047769631671304e-08
1.578100195932085e-08
2.3437162152975267e-08
3.0174525851576685e-08
3.796678818373561e-08
3.064488143295807e-08
1.2017016678812895e-08
9.621317223546132e-09
1.923744537261006e-08
3.849732469537744e-08
4.861756834689754e-08
3.353245235774583e-08
1.99669500058121e-08
1.9199498326158995e-08
3.1842031963613706e-08
4.480281053614357e-08
3.595585057499062e-08
1.8086427821850933e-08
9.110431519873584e-09
1.9633038702475416e-08
3.366615378454208e-08
3.2141969374224315e-08
1.734388964601412e-08
1.321338361990972e-08
2.388287914760801e-08
3.2327102006556156e-08
2.021957371009549e-08
4.277025258173575e-09
7.173724816066819e-10
8.998126894819091e-09
1.952297671343118e-08
1.8257737853208326e-08
9.771390995559171e-09
2.424844039272634e-09
5.924589733969203e-10
6.427541129065895e-09
1.614614382225221e-08
2.2829002440312342e-08
1.8310732214537466e-08
4.971004025274634e-09
1.1990706215203405e-09
1.7527541203804782e-08
3.7697942343293645e-08
3.2966040152431995e-08
1.2124290489313688e-08
8.061820503176534e-10
1.825874396574909e-08
4.150951371063744e-08
3.611042874138972e-08
1.0273248893190087e-08
2.836379597873507e-09
2.866619796393589e-08
5.270973108327778e-08
3.955205821660461e-08
9.794950322756688e-09
1.1935651290654717e-09
1.9251579562122583e-08
3.100476329379345e-08
1.926617034160507e-08
3.199820642852192e-09
1.4707226692781389e-09
1.044499197034678e-08
1.3124482059805016e-08
6.433779843097099e-09
4.599538558034461e-10
2.660979619805041e-09
8.474462526113133e-09
8.216242711534346e-09
3.7244514085903235e-09
7.344948234350258e-28
6.693227040987719e-29
5.816361769895131e-30
6.1379880715035265e-31
3.175443429928096e-13
2.3471817844054365e-13
3.576928794733281e-14
3.302798865890527e-15
3.0741899425703934e-13
8.771630184589285e-13