# vtk DataFile Version 4.1 
COMMENT
ASCII
DATASET STRUCTURED_POINTS 
DIMENSIONS 400 400 1 
ORIGIN 0 0 0
SPACING 0.002506265664160401 0.002506265664160401 0 
POINT_DATA 160000
SCALARS U double 1
LOOKUP_TABLE default
1.216147158028454e-06
1.2895543401295034e-08
3.8226545227339996e-08
4.329059634270354e-08
2.3210227197962638e-08
4.413597133520936e-09
1.0556099075678637e-08
3.167582111480616e-08
3.840309922337051e-08
2.1574036951701775e-08
6.5589516999235e-09
1.6276848938533035e-08
4.186715169364022e-08
5.0645749430855814e-08
3.257389665233175e-08
7.772729967253759e-09
3.824026236294254e-09
1.943832623865288e-08
3.163466168123215e-08
2.2746478930965684e-08
7.71922472271011e-09
7.663786235613153e-09
2.4477314151993934e-08
3.5933841695058304e-08
3.09602582698473e-08
1.6714356198745598e-08
1.1123089774042527e-08
1.654446616472108e-08
1.907085007806628e-08
9.884321120407728e-09
3.929752977513837e-10
5.417905242428894e-09
2.4176441223643955e-08
3.7878641819683053e-08
3.4264849813292195e-08
2.3999219438922093e-08
2.2828701579891517e-08
3.842090002306272e-08
5.554595334651114e-08
5.8306628727100236e-08
4.577694282429029e-08
2.7633997089538993e-08
1.239325499445062e-08
3.851742075875869e-09
1.1681157738601059e-10
2.5328970862358826e-09
1.1516893549826358e-08
2.2617550827408468e-08
2.7240453379415174e-08
2.458557407330944e-08
2.3328354562190914e-08
3.154277721479954e-08
4.431775262422106e-08
5.1043324182906395e-08
4.117384952614166e-08
1.9992297597415537e-08
3.7134156725665584e-09
5.440079088870428e-10
7.815136865493512e-09
1.5376514611183115e-08
1.9391974446673263e-08
1.8495167175231286e-08
1.6958465660022612e-08
1.5122331514407994e-08
1.4582196507020074e-08
2.2194573621600837e-08
3.6396986133220925e-08
4.947241394796029e-08
4.893085037708462e-08
3.358520167498279e-08
1.2257899276039027e-08
1.290978508040776e-09
6.890893533607508e-09
2.2611117863394256e-08
3.655797143774372e-08
3.813217135789507e-08
2.8625768330088253e-08
1.4998044160668595e-08
4.914287725095715e-09
5.412552747900199e-09
1.3810209410151693e-08
2.3914993940708515e-08
2.8203894098324582e-08
2.4891676773422143e-08
1.5557520421652867e-08
7.565336948745696e-09
3.6785117280554258e-09
2.769904490756255e-09
2.8133703981445717e-09
2.0330335479325417e-09
2.0486656255925413e-09
6.287664977229271e-09
1.579735848079763e-08
2.8514935700048137e-08
3.842548880622443e-08
4.2586577570708926e-08
3.676040824277141e-08
2.4427317275417897e-08
1.2841778456989353e-08
3.6711574357987544e-09
9.511892178091951e-10
2.243175265908601e-09
4.996496186982378e-09
6.101251718357283e-09
5.285293167683641e-09
3.345183953725736e-09
1.803434411234811e-09
3.138221379701379e-09
6.7715172913721805e-09
1.3438325144923456e-08
1.9653379573068355e-08
2.3323229427299075e-08
2.3243573598975893e-08
1.9842809693639578e-08
1.4425958318489488e-08
9.187610568516388e-09
4.9524325047627215e-09
2.5888363423919985e-09
1.2105352823948776e-09
2.928235665369586e-10
1.0258652536393814e-28
1.094208716061377e-29
1.8524616492793455e-30
7.172992238378235e-30
3.411887597686811e-11
6.289770040494115e-11
7.07532421668787e-11
4.5921314069796496e-11
7.025489943821266e-12
2.3695697849234734e-11
3.8490540827230175e-11
2.727035097984838e-11
8.932074062353973e-12
1.4371576984864101e-11
1.0214769043855265e-10
1.9187482175180305e-10
2.2076606020112675e-10
1.7289110619129665e-10
7.149494604912114e-11
6.96052973388621e-12
1.5256670684556707e-11
2.8924038018570234e-11
1.7766608466248864e-11
1.2225861104393043e-11
8.130017044849618e-11
2.2335000701951202e-10
3.461867297156381e-10
3.6280212677534335e-10
2.4708024143627234e-10
1.3574604541342974e-10
1.0809744243296659e-10
1.8127064269680493e-10
2.977909433537632e-10
2.8545191191975407e-10
1.762553139135455e-10
7.42010042559855e-11
2.876707949014732e-11
2.988915482606067e-11
4.1352173154461057e-11
1.821712751462587e-11
2.4320853057154546e-12
4.411892031538843e-11
8.591407136213695e-11
8.095984337811313e-11
9.736879006675934e-11
7.504042298342846e-11
3.158031382443948e-11
1.0430921945643325e-10
2.7056180091962637e-10
4.183898085893448e-10
3.349742120767161e-10
1.543456955448716e-10
1.5098024007576226e-10
2.0824581028212094e-10
2.2210704662302632e-10
2.0940725448489083e-10
2.1316095205405211e-10
2.5722977268382706e-10
1.7184124544420306e-10
2.653793112384527e-11
1.952584136957983e-11
1.022110767460742e-10
1.747780942430112e-10
2.1621392728162418e-10
2.1638301532332057e-10
1.5367158695727715e-10
8.80621704607307e-11
5.7150457833316893e-11
8.229417770521907e-11
9.688271294800358e-11
1.3292951228128897e-10
2.9182757024938926e-10
4.0285505768419916e-10
3.614193164342326e-10
2.1291528350178676e-10
4.559251467285508e-11
1.0502383735275484e-11
7.799437755963834e-11
2.2669484180069674e-10
3.600454407783743e-10
3.266556655940958e-10
1.8462703774322194e-10
6.932592436147965e-11
7.597144911570826e-11
1.7679397359266496e-10
2.7815289853034165e-10
2.7358816851799674e-10
1.2448010311128142e-10
2.307888773038869e-11
3.079465646868512e-11
2.4909952205523184e-11
3.5759398189656085e-12
5.515509128086684e-11
2.3088038653269962e-10
3.5884172992208277e-10
3.368220249408187e-10
2.3160879061709974e-10
1.0649469600482327e-10
9.705434584096543e-11
1.2365369725736302e-10
1.1931026683724185e-10
1.224743632831098e-10
1.1980840346769388e-10
3.665691152787963e-11
9.527836467639818e-11
5.268756339068031e-10
1.2406305468656533e-09
1.7110105340261804e-09
1.569061409550779e-09
9.12733221680873e-10
3.479075931175043e-10
1.2053436499201388e-10
7.70391036015881e-11
7.148319489136413e-11
1.4317744625084789e-11
9.106902799604823e-11
2.31665403734987e-10
3.344099905448376e-10
5.818264295693024e-10
1.1909336840847382e-09
1.8715629937577376e-09
1.990484046837894e-09
1.644705842818058e-09
1.1413505838652908e-09
8.441937515188163e-10
5.501523285909776e-10
2.329110249056763e-10
2.279197760565299e-10
9.644829435700441e-10
1.9344386081171086e-09
2.1972263190022217e-09
1.5792532829618807e-09
8.898660098649183e-10
8.077637337835968e-10
1.2370811819944345e-09
1.573774601222202e-09
1.6824087699708753e-09
1.4326117774250508e-09
8.525794708151356e-10
9.40311054155919e-11
3.721105440250252e-10
2.060675546654253e-09
4.278297330084875e-09
4.848355905855407e-09
3.652566363646187e-09
1.6732893792652749e-09
5.384131461321106e-10
5.096605926738034e-10
1.0594544518996714e-09
1.6299074767553637e-09
1.9307754271101146e-09
1.4329469434415297e-09
3.664159403234235e-10
1.211681003457524e-10
1.776270574286851e-09
4.7631123482331526e-09
7.321340866846037e-09
7.197026046070887e-09
5.011206553795149e-09
2.435504701777777e-09
7.106276834163644e-10
5.456730376876088e-10
1.2196841222928684e-09
1.5726887878690771e-09
1.2978596545290388e-09
5.693096106504524e-10
4.817468362062502e-10
1.920382069620735e-09
4.663355530095846e-09
7.370293063293869e-09
8.6062148835804e-09
6.7774495684432005e-09
3.5704117522492964e-09
7.828404954222972e-10
3.809673059485417e-11
1.2753168711304594e-09
3.1277123412641225e-09
3.804535070239425e-09
3.441520874946007e-09
2.690695772557253e-09
1.8712204410405005e-09
1.888849300370541e-09
2.9335345106374526e-09
3.848349943795433e-09
3.791570228954972e-09
2.430768937445951e-09
4.4678065613582156e-10
3.3629691993687226e-10
2.541092034242673e-09
6.299036569653952e-09
8.606037936192063e-09
8.601527190884049e-09
5.946193796975645e-09
2.375440537246089e-09
2.7240053405318225e-10
4.1779945119074203e-10
1.9882166013762707e-09
3.491285126181608e-09
3.4213950794944514e-09
2.040657301043087e-09
7.178632714159077e-10
8.962949553869637e-10
3.023596163158654e-09
5.898426828564717e-09
7.293783294839394e-09
5.817046116899526e-09
2.4187808106193625e-09
1.9163629069184343e-10
1.1133963962222076e-09
4.423374613795053e-09
7.848137901130964e-09
9.165128201314136e-09
6.75245389498952e-09
2.959713167204482e-09
2.8803400810984077e-10
4.739783518869438e-10
2.7133856363441093e-09
4.820876304703521e-09
4.2561432976871e-09
1.998103962030324e-09
1.3902952799499144e-10
6.670042745948222e-10
3.4458203548916795e-09
6.8747614780573894e-09
7.26557325156394e-09
4.6326419366903455e-09
1.2604282638559929e-09
3.724926379440694e-11
1.578183300645786e-09
3.880479118736184e-09
4.971553189223821e-09
3.498709363428896e-09
1.276908840229808e-09
5.391001219071214e-10
1.5584655037072443e-09
2.7264989267978842e-09
2.3764723163899255e-09
1.1461809161439169e-09
9.695302410154579e-11
4.764224050425058e-10
2.427286735919428e-09
4.6921533148706676e-09
5.0635283250513825e-09
3.63297950529907e-09
1.1841797367718681e-09
5.503362715564013e-12
1.4720990424147691e-09
4.7127406278840274e-09
6.740075097214795e-09
5.306833739837179e-09
1.7819597786791894e-09
1.1294918901882634e-11
1.529998014642415e-09
5.289454877041736e-09
7.633072967068631e-09
6.5855912541863005e-09
3.3015570971141346e-09
4.959424609550518e-10
4.773497945069757e-10
3.3731208111674117e-09
6.808574000579404e-09
7.621953360570807e-09
5.214733121478715e-09
1.6243830744095888e-09
2.6551409839693553e-12
1.4798066815914082e-09
4.086208937437819e-09
5.5185309696940014e-09
4.502654306795496e-09
1.9762623559229274e-09
3.855779586800128e-10
3.0844097581251224e-10
1.3029463998568324e-09
2.1095182101718133e-09
2.317872788203346e-09
1.944904883101292e-09
1.1931322668377745e-09
5.374457907632867e-10
1.3051128239861407e-10
6.874957813538777e-31
1.2786465887111273e-08
8.140818033955805e-08
2.413200739809886e-07
2.7328888472585843e-07
1.4652367121373918e-07
2.786256462490334e-08
6.663951959936703e-08
1.999660562934291e-07
2.424346403936826e-07
1.3619457793768123e-07
4.140595756299818e-08
1.027539989989698e-07
2.6430283155320283e-07
3.197211761301296e-07
2.056355106965748e-07
4.9068409388730056e-08
2.414066687846448e-08
1.2271206560993005e-07
1.9970622121034677e-07
1.4359607821691725e-07
4.873063652710066e-08
4.8380659312888196e-08
1.5452265505255305e-07
2.2684648284853687e-07
1.954487849141674e-07
1.0551593533859498e-07
7.021887097579869e-08
1.044434378022467e-07
1.2039222807997242e-07
6.239865752562598e-08
2.4808108439325972e-09
3.420265384039535e-08
1.5262327657363242e-07
2.3912379713790194e-07
2.1631031637086603e-07
1.515044944826593e-07
1.4411514096778032e-07
2.42547014930097e-07
3.506556371026092e-07
3.6808348424702687e-07
2.889849229974455e-07
1.7445045536755702e-07
7.823728757960246e-08
2.4315633996693537e-08
7.374189409213735e-10
1.5989907238583244e-08
7.270491191256055e-08
1.4278216894775296e-07
1.7196605619737224e-07
1.5520608830726286e-07
1.4726939657566276e-07
1.991261644433711e-07
2.79773212000837e-07
3.222310228350105e-07
2.599260894396552e-07
1.262092272939093e-07
2.3442394270696724e-08
3.434263495121482e-09
4.933611958225293e-08
9.707028509828719e-08
1.2241945172596145e-07
1.1675800375037297e-07
1.0705697214703503e-07
9.546565451098994e-08
9.205584022703133e-08
1.4011195928086515e-07
2.29770263938787e-07
3.123140352584414e-07
3.088952026066313e-07
2.120197706769653e-07
7.738280146827391e-08
8.149808653005102e-09
4.350147070407894e-08
1.4274155833691716e-07
2.3078654687427727e-07
2.4072430188019115e-07
1.8071140067972685e-07
9.468104179694744e-08
3.102337054868833e-08
3.416886411736477e-08
8.718236860617961e-08
1.5097278795937528e-07
1.7804815396950442e-07
1.5713848177357445e-07
9.821295533735202e-08
4.7759159539656296e-08
2.322204941814566e-08
1.748610952557391e-08
1.7760505130099996e-08
1.2834322413264342e-08
1.2933006040438935e-08
3.9693353622430475e-08
9.972702724293654e-08
1.8001172619118166e-07
2.4257598342530057e-07
2.688444898392331e-07
2.320645086800127e-07
1.5420703014105778e-07
8.106876802122617e-08
2.3175622561078072e-08
6.004755361660662e-09
1.4160924506832693e-08
3.1542343738297e-08
3.8516546742434127e-08
3.336548805682856e-08
2.1117786982637144e-08
1.1384887725291542e-08
1.9811254483353547e-08
4.274786130944295e-08
8.48347031851083e-08
1.2406967421050755e-07
1.4723704214959822e-07
1.4673418346148906e-07
1.2526552621436006e-07
9.106952532489649e-08
5.800039864751253e-08
3.126417444546964e-08
1.6343045754076938e-08
7.641979210174535e-09
1.8485637224034582e-09
6.476177154657505e-28
6.907622091931021e-29
1.169439141288947e-29
4.528232952614495e-29
2.1538879922105177e-10
3.970664266070965e-10
4.4665761796057755e-10
2.898963231629349e-10
4.4351163384314394e-11
1.4958839528921725e-10
2.4298664984645793e-10
1.7215479653750723e-10
5.638722413212753e-11
9.072622180699768e-11
6.448473977184974e-10
1.211285139812153e-09
1.3936724248395927e-09
1.0914429825821305e-09
4.513399149003158e-10
4.3941076556584605e-11
9.63137232623258e-11
1.8259434518498329e-10
1.1215869087745905e-10
7.718054793199844e-11
5.132392433221017e-10
1.4099846035538152e-09
2.185439639637232e-09
2.290330856560593e-09
1.5597910244841344e-09
8.569502037648563e-10
6.824075429767619e-10
1.1443420964677711e-09
1.8799222386856314e-09
1.8020272586187643e-09
1.1126808645720481e-09
4.684229696936198e-10
1.8160348285448226e-10
1.8868702392429334e-10
2.6105182735090686e-10
1.1500276923812729e-10
1.5353493296683378e-11
2.7851800499241025e-10
5.423663041956124e-10
5.110907950824257e-10
6.146787129888054e-10
4.737221299552353e-10
1.9936312902809704e-10
6.584928982314218e-10
1.7080275872708548e-09
2.641249920996276e-09
2.1146562201561915e-09
9.74367797194928e-10
9.531220383131042e-10
1.3146334319422164e-09
1.4021379280812733e-09
1.3219655044397531e-09
1.345662193996841e-09
1.6238639250553459e-09
1.0848153244547316e-09
1.6753110865819028e-10
1.2326453923118334e-10
6.45247548669349e-10
1.1033553354649986e-09
1.3649352986783732e-09
1.3660027333232978e-09
9.701122220896694e-10
5.559270230706315e-10
3.607847015826989e-10
5.195143043641975e-10
6.116101603492454e-10
8.391697326347582e-10
1.842276104823277e-09
2.543180707170885e-09
2.281601323409377e-09
1.3441113148144588e-09
2.878206478874707e-10
6.630042042514368e-11
4.923701279008516e-10
1.4311001862477065e-09
2.272928193966456e-09
2.0621421297339025e-09
1.1655306578743475e-09
4.3764711396800296e-10
4.795995979237322e-10
1.1160813652671176e-09
1.755949371102487e-09
1.7271327208472494e-09
7.858295201233863e-10
1.4569453926254995e-10
1.9440335853126575e-10
1.5725385261340393e-10
2.2574523973648443e-11
3.4818816686597947e-10
1.4575230805576866e-09
2.2653292966252374e-09
2.126321264287602e-09
1.4621214173022212e-09
6.722895769321693e-10
6.126936603668591e-10
7.806125087345759e-10
7.531928990345279e-10
7.731675000312647e-10
7.56337582076074e-10
2.314111450358241e-10
6.014820820389361e-10
3.3261092834053503e-09
7.831967382147e-09
1.0801425716026719e-08
9.9053161404368e-09
5.761986788787852e-09
2.1963032654496044e-09
7.609204992011859e-10
4.863395860128047e-10
4.512657311036261e-10
9.03863839020221e-11
5.749089917146127e-10
1.4624788098344414e-09
2.1110943502303377e-09
3.6730077539766394e-09
7.5182364255149e-09
1.18149761488432e-08
1.2565711983235973e-08
1.0382851322435244e-08
7.205223639713738e-09
5.329304475705166e-09
3.4730525567200526e-09
1.4703422824887277e-09
1.4388330646305553e-09
6.0886772244660045e-09
1.2211903148616944e-08
1.3870853740540546e-08
9.969656342538372e-09
5.617628536836317e-09
5.0993256868109975e-09
7.80956062296397e-09
9.935070013199042e-09
1.062086585175532e-08
9.043924269331775e-09
5.382242620885085e-09
5.936082682976941e-10
2.349093894810059e-09
1.300882338207632e-08
2.7008431498809306e-08
3.0607150055778257e-08
2.305825911950724e-08
1.0563296117774675e-08
3.3989443588015016e-09
3.217432577225738e-09
6.688222155348227e-09
1.0289430827022734e-08
1.2188777880394132e-08
9.046040136392519e-09
2.3131444733179993e-09
7.649212024177344e-10
1.1213405340396322e-08
3.006901663280045e-08
4.621883848304707e-08
4.543405237255816e-08
3.163520870389705e-08
1.5375079576736223e-08
4.486116234545965e-09
3.4447752743824827e-09
7.699734853743502e-09
9.928215390131557e-09
8.193248591658884e-09
3.5939904206147115e-09
3.0412160309546536e-09
1.2123165730948463e-08
2.9439262555108237e-08
4.652786844110548e-08
5.4330110138138315e-08
4.278531113738686e-08
2.2539625882256238e-08
4.9419879601232845e-09
2.4050056814992314e-10
8.05093842145831e-09
1.9744912052509608e-08
2.4017621240770725e-08
2.1725951618434497e-08
1.6986073395653094e-08
1.1812813650333993e-08
1.192410274571066e-08
1.8519088265044186e-08
2.4294219831229823e-08
2.3935775590338307e-08
1.534518320519346e-08
2.8204782920026793e-09
2.1230063328009465e-09
1.6041641065103737e-08
3.9765141263947266e-08
5.432899308828224e-08
5.430051723766678e-08
3.753768274003423e-08
1.4995900957737545e-08
1.7196353120386067e-09
2.6375230581511303e-09
1.2551397843590533e-08
2.2040107991142605e-08
2.1598899633526846e-08
1.2882450347758765e-08
4.53179372438873e-09
5.6582137793627615e-09
1.9087637803591617e-08
3.7236134999263535e-08
4.604487049101876e-08
3.672238730789164e-08
1.5269503448221415e-08
1.2097793188520352e-09
7.028751855774378e-09
2.7924288807642476e-08
4.954445157548216e-08
5.785846987826988e-08
4.262751613574144e-08
1.8684351312016067e-08
1.8183277545153198e-09
2.9921744238853756e-09
1.7129312068546466e-08
3.043367428538093e-08
2.6868575471919795e-08
1.2613815689365583e-08
8.776784766125696e-10
4.210726340389686e-09
2.1753093773510216e-08
4.3399630770188304e-08
4.5866783517954536e-08
2.9245370938987595e-08
7.956948242968974e-09
2.351506012679018e-10
9.962901659107193e-09
2.4497047861530217e-08
3.138488127265682e-08
2.208697640342295e-08
8.06098835138385e-09
3.4032811630788126e-09
9.838425324987733e-09
1.7212094862639396e-08
1.5002414468645784e-08
7.235717008546795e-09
6.120540271092046e-10
3.0076034689326345e-09
1.5323200440991265e-08
2.9621059877126704e-08
3.196551042578375e-08
2.2934609386650898e-08
7.475599481592493e-09
3.4742137689028506e-11
9.293203131754591e-09
2.9751025372828898e-08
4.254937011503706e-08
3.350147137509001e-08
1.124932067662896e-08
7.130360980312034e-11
9.658713124308292e-09
3.33917604809833e-08
4.818676974758001e-08
4.157413020761688e-08
2.0842375322952553e-08
3.1308314851949982e-09
3.0134579790078748e-09
2.1294149362876508e-08
4.298179633428488e-08
4.8116572866152826e-08
3.292005006422398e-08
1.025455586840812e-08
1.6761619834354708e-11
9.341860629973785e-09
2.5795798108875775e-08
3.4837893248078976e-08
2.8424772993861167e-08
1.2475931976088487e-08
2.4341122369476022e-09
1.9471547496426267e-09
8.225360668529161e-09
1.331716187051122e-08
1.4632481941572368e-08
1.2277975618375001e-08
7.532115842277801e-09
3.3928375482649453e-09
8.239037071354729e-10
1.408352842333034e-10
5.2368285792427755e-08
3.322056489894476e-07
9.87933001670388e-07
1.1147786383733189e-06
5.878107728834944e-07
1.1032056270829394e-07
2.9549817213950146e-07
8.682383361061032e-07
1.036458283995833e-06
5.767347213772178e-07
1.5547181771228075e-07
3.8432981924645946e-07
1.035288585979113e-06
1.271090660835733e-06
8.114982648802467e-07
1.9921109100739675e-07
1.3108885755808825e-07
5.452343474828305e-07
8.464774239012798e-07
5.944661269755126e-07
1.9096280007657128e-07
1.8757134003520462e-07
6.128828319994464e-07
8.849297068171077e-07
7.41649835468806e-07
3.7132722204111436e-07
2.489740434870285e-07
4.2125152060805843e-07
5.263586173118257e-07
2.9422231761090656e-07
2.5251700776704834e-08
1.126359043336866e-07
5.585364938229489e-07
8.878754932573305e-07
7.995624513691176e-07
5.305701527841547e-07
4.882806608053021e-07
8.477798409136346e-07
1.2474701493950705e-06
1.3012304818548952e-06
9.828500922188714e-07
5.867181372581689e-07
2.798445973073999e-07
1.1249900140872282e-07
2.1115596854942196e-08
4.7107727515509794e-08
2.3748348367749765e-07
5.050148425653626e-07
6.216517243177496e-07
5.432542014952509e-07
4.889180380717173e-07
6.660397208091296e-07
9.772892615917045e-07
1.1397791258529326e-06
9.244940114554305e-07
4.377694895174961e-07
7.484200737914328e-08
1.925027297297065e-08
1.8446690977183502e-07
3.374034833099828e-07
4.145731111649304e-07
4.0587667645535935e-07
4.08987954060405e-07
3.8905641784497904e-07
3.63038181431588e-07
4.938846409336393e-07
7.832229584250405e-07
1.073377951330846e-06
1.0718201470165461e-06
7.558098848778745e-07
2.909693586441131e-07
4.934521510462871e-08
1.6506011933194023e-07
4.964302886507082e-07
7.731042338298562e-07
7.949171486956205e-07
5.724617373427328e-07
2.7165384727891006e-07
5.9389196083926195e-08
7.238697384251836e-08
2.6442016995284643e-07
4.942023083721708e-07
5.884508222344633e-07
5.086586028451984e-07
2.9500994891618553e-07
1.26856580478179e-07
5.6853196274586796e-08
5.858185290765949e-08
7.289196266094472e-08
5.4939160183338565e-08
3.519627251017805e-08
9.398153849149363e-08
2.6414366769190823e-07
5.105917434441243e-07
7.095404449225142e-07
8.029866101595779e-07
7.040186248713468e-07
4.592190044401933e-07
2.305505185655298e-07
5.503279408843531e-08
8.061410885447212e-09
4.116777413811779e-08
1.0245144674814103e-07
1.3057380628427289e-07
1.1896656770136136e-07
8.069561098772959e-08
4.411063976375747e-08
6.123789444565039e-08
1.26768872779058e-07
2.520990862136019e-07
3.7685245955307415e-07
4.4752607475143187e-07
4.4209000454032663e-07
3.744512343940511e-07
2.5911568861516677e-07
1.5762523518977738e-07
7.93715988948183e-08
4.0722380321518124e-08
1.9817441544330447e-08
4.578559046923683e-09
1.2488887198018791e-27
1.4075183818837641e-28
2.2083311287429238e-29
1.4724189207883075e-28
7.234209783031233e-10
1.295060507902442e-09
1.3318443131578232e-09
7.589263121924542e-10
1.0754547366767442e-10
5.475645365792069e-10
9.259170050177702e-10
6.467726896254819e-10
1.4433430317435462e-10
3.348072041457346e-10
2.2526957204478433e-09
4.114057039256707e-09
4.5248811907967754e-09
3.242020995748968e-09
1.0745623919237782e-09
6.504149504508378e-11
5.462781801284318e-10
9.367498597937013e-10
5.227341839874281e-10
2.0582026468496667e-10
1.6863546401739133e-09
4.653884147814173e-09
7.478980589092475e-09
7.641104252338456e-09
4.850111144249006e-09
2.3340621448713606e-09
1.951358330889908e-09
4.1051892519008455e-09
6.751404483680042e-09
6.0097355529164624e-09
3.4649156166023167e-09
1.301634468758904e-09
4.858711770453542e-10
9.373412146326713e-10
1.2579336327824299e-09
5.730961459091553e-10
6.46446513789198e-11
1.1297352128153661e-09
2.2849757055016155e-09
2.1361220307697106e-09
2.278356963348948e-09
1.592468947434594e-09
6.631788808196524e-10
2.200738106071081e-09
5.876936481068864e-09
9.390092132554353e-09
7.2310809882901505e-09
3.006010165035676e-09
2.941266042447301e-09
4.411313220090961e-09
4.812279869083988e-09
4.458973921594864e-09
4.6832459019980865e-09
5.71778975392495e-09
3.6600775283599904e-09
5.11447510199523e-10
4.3888807804662767e-10
2.1761739234216752e-09
3.7274817509327386e-09
4.260357770016076e-09
3.912743083175685e-09
2.74683334322095e-09
1.5786909410846446e-09
1.0242554665663534e-09
1.7091681150174731e-09
2.095069795110843e-09
2.625361321070013e-09
5.458500022616611e-09
7.740392697577906e-09
7.330582181197505e-09
4.141537017470836e-09
9.308858229360027e-10
5.18744464628726e-10
1.7281481541710983e-09
4.89226622074715e-09
7.92243482159597e-09
7.410380055413694e-09
4.431084360137347e-09
1.6245975921090001e-09
2.06097848901275e-09
4.681167594683726e-09
6.981985176669305e-09
5.910350243167163e-09
1.988278463069307e-09
3.360303031540028e-10
1.0301121801167064e-09
1.0824066596749478e-09
2.108192888793789e-10
1.1174518745772934e-09
5.224905338957638e-09
7.478996625753123e-09
6.422879605346043e-09
3.74856803183162e-09
1.452189136981475e-09
1.8388251671231963e-09
2.6479368477756014e-09
2.886538597187776e-09
3.508606933830286e-09
3.5767479931554616e-09
9.111624618557394e-10
8.15373937043579e-10
8.320728476358027e-09
2.3666850789812905e-08
3.51644696602223e-08
3.150545821755099e-08
1.7666263325330448e-08
6.099793665267388e-09
2.198937290744803e-09
2.0750598965845796e-09
1.7250709085486101e-09
3.22768837269282e-10
2.896163215396096e-09
6.238952228808726e-09
5.867570651788743e-09
7.348653891392795e-09
1.7364277042086868e-08
3.254559964782372e-08
3.828870804660295e-08
3.292961336765323e-08
2.3141720288856684e-08
1.80200857911378e-08
1.2503518903536723e-08
5.173286156651312e-09
4.783137896636656e-09
1.9821821891987765e-08
4.007665504685318e-08
4.3123613224641795e-08
2.663128828101432e-08
1.1157023745554186e-08
1.070218597719733e-08
2.235519040247301e-08
3.1760139155401074e-08
3.6322593260831606e-08
3.2761581686468423e-08
2.250046099988351e-08
4.288358122660819e-09
5.843321506605442e-09
3.920778385252064e-08
8.590353637359742e-08
9.824724108509812e-08
7.161736147108427e-08
2.7669507992227362e-08
5.268715853279047e-09
7.454177117614087e-09
2.1565267421610422e-08
3.5218041258990847e-08
4.374991924027411e-08
3.6067466994854435e-08
1.2103916712077386e-08
5.040823252320226e-10
2.793306204892181e-08
8.629738231087674e-08
1.4002460714858688e-07
1.3666103204600058e-07
9.131245904680675e-08
3.90033750839768e-08
7.587472585429121e-09
1.0453804736878674e-08
2.910865804702275e-08
3.713955551964201e-08
3.1740303883537016e-08
1.2483457513613729e-08
3.344605820934398e-09
2.392273071357354e-08
7.526237799235997e-08
1.3482108831717844e-07
1.6819931666813354e-07
1.3474765035265604e-07
7.181156096631349e-08
1.4707340005704926e-08
1.1377264598877685e-09
2.6402083346677784e-08
6.084866235380881e-08
6.973752209402759e-08
5.934173848460721e-08
4.160391222685688e-08
2.401909850086905e-08
2.543979406817057e-08
5.256263939207132e-08
8.027966538126936e-08
8.613975317137402e-08
5.979599522795598e-08
1.2219538022066545e-08
3.6615920228442707e-09
4.487829825192777e-08
1.214440702350178e-07
1.687170480557732e-07
1.6838385797082326e-07
1.1197362732372848e-07
4.1248543638821116e-08
2.703969756267504e-09
1.1335822864887476e-08
4.652071131807638e-08
7.772723845600542e-08
7.202271732827229e-08
3.962710151987176e-08
9.616849587641807e-09
1.1194301780267576e-08
5.506443351047169e-08
1.166803370685181e-07
1.498798177469405e-07
1.2271849794800087e-07
5.195278584992651e-08
5.440109442630405e-09
2.4378378652957456e-08
9.186888066643086e-08
1.6152594661660137e-07
1.848060005762752e-07
1.31372313277448e-07
5.48668493805976e-08
3.649399759725392e-09
1.3705303053862435e-08
6.600334429720928e-08
1.1581884744112748e-07
1.034666226004305e-07
5.113543965517339e-08
4.5598024916374785e-09
1.2643340840882451e-08
7.193889555579975e-08
1.501543258984214e-07
1.6113659847845891e-07
1.0374035269529782e-07
2.817189096876217e-08
1.796814840815868e-09
3.6979119692073026e-08
8.963066873406192e-08
1.1257830650905847e-07
7.4671051493407e-08
2.1520336410518678e-08
5.742158947290388e-09
3.4013178021549556e-08
6.470038619686008e-08
5.828478707759355e-08
2.984362865274169e-08
2.9641618869640724e-09
5.989117054015161e-09
4.4341093729541927e-08
9.519955540143194e-08
1.0685366910038381e-07
8.121331692231008e-08
2.8964594063879732e-08
2.0910118692882336e-10
2.7866914736735642e-08
9.850510305055734e-08
1.463269473354348e-07
1.1803488921475351e-07
4.094605953244118e-08
1.4641543387930138e-10
3.237062555214625e-08
1.1432266467988736e-07
1.6672625044673985e-07
1.4522519738367647e-07
7.318699778280934e-08
1.2307188871072339e-08
1.1278343171390948e-08
7.43383677100776e-08
1.4995081672591924e-07
1.6859198094819757e-07
1.1492853308036218e-07
3.504295140644569e-08
7.395836410194542e-11
3.426695288958355e-08
9.119715318132109e-08
1.1893428109377683e-07
9.288118343757515e-08
3.6963197272874766e-08
5.284508774891267e-09
6.400504583920661e-09
2.810060829172077e-08
4.200878398656958e-08
4.249770153518026e-08
3.195238445658267e-08
1.723488391510429e-08
7.126727674394362e-09
1.6312808195406252e-09
3.2901578609882927e-10
1.064181255203932e-07
6.678436145699329e-07
1.967923420538148e-06
2.2160018272153492e-06
1.1562427303613729e-06
2.237913525771793e-07
6.396402053441688e-07
1.8282765079584156e-06
2.165363293842107e-06
1.2023129755375596e-06
2.914578088639511e-07
6.942475947256471e-07
1.9722948712675564e-06
2.4423403779503186e-06
1.553375244033329e-06
3.9686054189344503e-07
3.468170731153675e-07
1.232255382291616e-06
1.8175043333078284e-06
1.247643256126663e-06
3.7488417343985603e-07
3.4123676589106195e-07
1.1895622649661655e-06
1.70876787922911e-06
1.3649048525151316e-06
6.007039278809109e-07
4.183904577372458e-07
8.682531054564952e-07
1.1723194525282138e-06
7.309690928416786e-07
1.2520042417568886e-07
2.0685368865760302e-07
1.0138227645393437e-06
1.627518708378928e-06
1.4223397907696373e-06
8.825806014798279e-07
7.722382424603033e-07
1.4192735500985767e-06
2.1240687912446554e-06
2.152639341567313e-06
1.5676999756276072e-06
9.46922324331675e-07
5.597639659417039e-07
3.655690730848694e-07
1.7646770392723963e-07
1.1869370636731283e-07
3.8985969174341796e-07
8.765838201901797e-07
1.1028841499177973e-06
9.336419482301785e-07
7.538674424208785e-07
1.0178922088076742e-06
1.5853899018246982e-06
1.9199858635077254e-06
1.5822712314622462e-06
7.481696762450788e-07
1.5293630387783213e-07
1.069870605232303e-07
3.987353653229383e-07
5.992212046484659e-07
6.699531024658342e-07
6.647384579564129e-07
7.366955877440929e-07
7.665267588347264e-07
6.787323708987391e-07
8.034778758757821e-07
1.2215243978135304e-06
1.7069701806314003e-06
1.757199684899393e-06
1.2785751110292387e-06
5.366821122277107e-07
1.5283466787628638e-07
3.347909069628618e-07
8.401366408325043e-07
1.2382544907424726e-06
1.2265602751925762e-06
8.590903103318114e-07
3.709647874395882e-07
4.496195650692179e-08
5.639120675426665e-08
3.7090795802784254e-07
7.504862231886248e-07
9.167337850139902e-07
7.785323320874518e-07
4.124139020223281e-07
1.365643898034114e-07
4.6702804714428446e-08
8.686162521380803e-08
1.3599055611707797e-07
1.0410233282760326e-07
4.293958592513465e-08
7.688527234450586e-08
2.7178504168960487e-07
5.88198813588413e-07
8.595621908915595e-07
1.0036860184302696e-06
8.858884628428587e-07
5.703374750855776e-07
2.7457827304847643e-07
5.0715716399436867e-08
1.6128210490759525e-09
5.9244296910804985e-08
1.5790025330361538e-07
2.0487010987462042e-07
2.0023639437729163e-07
1.472940808597205e-07
8.196820223694535e-08
8.756948875678138e-08
1.5317871929110324e-07
3.1642384308728234e-07
4.813606064247244e-07
5.793682096879407e-07
5.563896258539736e-07
4.536445699091903e-07
2.8792429514222886e-07
1.577344533833407e-07
6.850669476116048e-08
3.576868772444273e-08
2.251104601778911e-08
5.840254799086675e-09
1.5312750109679402e-27
1.8229481118064273e-28
2.770385927452366e-29
3.0084454462589717e-28
1.6171244551079469e-09
2.6069916834199695e-09
2.486853738883865e-09
1.3267593359738698e-09
1.1554963782579914e-10