# vtk DataFile Version 4.1 
COMMENT
ASCII
DATASET STRUCTURED_POINTS 
DIMENSIONS 400 400 1 
ORIGIN 0 0 0
SPACING 0.002506265664160401 0.002506265664160401 0 
POINT_DATA 160000
SCALARS U double 1
LOOKUP_TABLE default
5.017345073775119e-07
4.418846628705567e-09
1.1958276430678432e-08
1.2543370833869346e-08
7.280443759273646e-09
6.216693508205904e-09
1.528758207448656e-08
2.5830879294625385e-08
2.3712486177923307e-08
1.784696691238827e-08
2.1503090329286827e-08
3.4386213687376196e-08
5.034682896548723e-08
5.0248902928826516e-08
4.7540335855877796e-08
5.6896388433403896e-08
7.234210467586402e-08
8.484441780098938e-08
8.292204273852625e-08
8.932433694354967e-08
1.0566590835848893e-07
1.439698663527184e-07
1.6703904282706262e-07
1.879709332453993e-07
2.1739046484562778e-07
2.523408269417415e-07
2.877252877705037e-07
3.0777718953053505e-07
3.4700032746555143e-07
3.9765009917489823e-07
4.82544038815796e-07
5.324715273754243e-07
5.86126409252665e-07
6.216638638555978e-07
6.993700500843207e-07
7.16625008981393e-07
7.769552533348336e-07
8.548603523453559e-07
9.941389441823966e-07
1.0885989555386312e-06
1.2333573893650693e-06
1.3161339004096636e-06
1.4199830333378615e-06
1.453717598641321e-06
1.5885510808715108e-06
1.7180046851961926e-06
1.9209328455635354e-06
2.0331371514047664e-06
2.197117353732668e-06
2.252437752409807e-06
2.3445337696141943e-06
2.380145413995862e-06
2.550328556407015e-06
2.739182454961773e-06
2.9939907137326248e-06
3.176841678833148e-06
3.2859794420578093e-06
3.3224381441490664e-06
3.3018185526426175e-06
3.4182641526828305e-06
3.547244295685974e-06
3.7892139784773795e-06
3.846995269691503e-06
3.937170213710039e-06
3.8016388649552767e-06
3.7288498094791203e-06
3.682494402849604e-06
3.8075989320426457e-06
4.000295928629205e-06
4.029570849971541e-06
3.998449468630411e-06
3.7412111163871804e-06
3.6345426331871566e-06
3.5971926929111375e-06
3.8504306779277855e-06
4.064032783521771e-06
4.144724028289895e-06
4.106010550579338e-06
3.869327407207783e-06
3.854344470196683e-06
3.883619796237958e-06
4.115394102454396e-06
4.1016382677355455e-06
3.7769089817463284e-06
3.4138163130131536e-06
3.0362084826654552e-06
3.071975668595254e-06
3.2498927658894463e-06
3.4283365046362883e-06
3.33868804692146e-06
2.819473023288684e-06
2.4301439220268557e-06
2.2355802962905818e-06
2.406751645341705e-06
2.6232669137828326e-06
2.458695345277835e-06
2.1620196224101025e-06
1.7875524153384493e-06
1.8051244635863645e-06
2.093998536867864e-06
2.135610634985682e-06
1.8878544565620035e-06
1.2950316436480789e-06
8.94210651869595e-07
9.718287771649502e-07
1.221691637483926e-06
1.331923831506329e-06
9.6507913264774e-07
4.3273565270204806e-07
2.7253157039338454e-07
5.000220135193153e-07
9.106376622026021e-07
9.69694021731219e-07
5.188024499246601e-07
1.1568337794377873e-07
9.0624490307021e-08
4.4452871906996813e-07
8.336907758985346e-07
7.188895593886282e-07
2.6650830967737445e-07
9.304251887821748e-26
8.46744645178722e-27
7.348167644914493e-28
8.970534995955878e-29
2.041389476936363e-11
8.350001458022716e-12
1.0013464838483775e-13
1.9716713917379527e-11
7.741314827019108e-11
1.8482095397452732e-10
3.1403437003299874e-10
4.844252217927705e-10
6.03704235009402e-10
6.562688775316566e-10
6.237918736162481e-10
5.016482180860153e-10
3.905718783021871e-10
2.271635672758024e-10
1.9210196720090466e-10
2.5413894806716185e-10
5.766514506839268e-10
9.463864526758916e-10
1.5196919861308181e-09
2.063226205296235e-09
2.5047869326480196e-09
2.977307525823036e-09
2.9045804298253296e-09
2.779797331583255e-09
2.3727812743862962e-09
1.7554725611034759e-09
1.3659307659647143e-09
8.387975914446822e-10
6.209887729402737e-10
6.105131945184755e-10
8.575305419381165e-10
1.4992964025953469e-09
2.065389795049094e-09
2.8970428620289103e-09
3.674801387196499e-09
4.233770617177565e-09
5.068337580526071e-09
5.560067632197186e-09
5.868875709146233e-09
6.302360668599225e-09
6.059209907420508e-09
5.6437133266743285e-09
5.463714811781563e-09
4.735804145325866e-09
3.954812982743335e-09
3.592679474640104e-09
2.9517723993846446e-09
2.2756610304574526e-09
2.000237306793926e-09
1.6072815184733422e-09
1.154686204260384e-09
1.0325562237298082e-09
9.079063122885986e-10
7.019391442952837e-10
7.016378069900127e-10
6.939125968474184e-10
5.799308292766547e-10
6.723131292437847e-10
8.050723307104636e-10
6.456090604908594e-10
5.157973934741616e-10
6.698733859243615e-10
7.448138066775806e-10
6.529838208753957e-10
7.358439375595727e-10
9.055188381130652e-10
1.0209657274458324e-09
1.6332141517398715e-09
3.035502212394917e-09
4.5765525476888225e-09
5.85786080778388e-09
7.075859268947451e-09
7.754415327118388e-09
7.085976558897038e-09
5.513095811295516e-09
4.090151985270074e-09
2.8721127535241095e-09
1.5445562287572542e-09
5.468365608801426e-10
2.573951302051525e-10
2.570174388472407e-10
1.592483687479961e-10
5.988303991167247e-11
1.2626534287815197e-11
2.570304054745057e-11
2.9877300824066936e-10
8.044098114046648e-10
1.227384600727309e-09
1.5895425198213122e-09
2.102286906603851e-09
2.4791735913459774e-09
2.3839713858383218e-09
2.2307365238494954e-09
2.5031619839100447e-09
2.7809658729548146e-09
2.4506856723086957e-09
1.7832545528879247e-09
1.3716378388386055e-09
1.1378799234473294e-09
7.340630183797907e-10
3.0080283467731007e-10
1.132259485765597e-10
6.332249484420752e-11
5.3419502143644416e-11
3.1287884719652004e-10
8.875756596424953e-10
1.433849683996256e-09
1.883631726701675e-09
2.6444634994363733e-09
3.766069894322572e-09
4.612361557062907e-09
4.825522027694367e-09
4.950480451689903e-09
5.52309846813329e-09
6.100060396813899e-09
5.888129979092574e-09
4.956441782685389e-09
4.0773646553355154e-09
3.5423926848996945e-09
2.8876981906594254e-09
1.8371264729314816e-09
8.304994489760973e-10
3.6106269535722e-10
3.220012118968397e-10
3.9583987649362004e-10
7.163339520211517e-10
1.6456184146023863e-09
3.0449954697079523e-09
4.276106110178081e-09
5.000348701858655e-09
5.562611668056134e-09
6.353095278907227e-09
7.075106709602096e-09
7.000257516220354e-09
5.8837927512915805e-09
4.3021526301291275e-09
2.9955959960857994e-09
2.123172921902935e-09
1.3650687806811285e-09
6.199706443741682e-10
2.9960546778606737e-10
8.33492783583146e-10
2.0546783553257e-09
3.266452879540822e-09
3.912425167081628e-09
4.048040672993909e-09
4.094801959147465e-09
4.224572762338548e-09
4.118267116695163e-09
3.3673460034169362e-09
2.048206197797322e-09
8.227124440780109e-10
4.344972270898793e-10
1.0828666984773075e-09
2.250563859463698e-09
3.112046385127875e-09
3.1406484104797685e-09
2.4212920355260514e-09
1.484661685100995e-09
8.733112048769608e-10
7.996093955826834e-10
1.1037092033894518e-09
1.4580057613307834e-09
1.6138247723081313e-09
1.5206273142555098e-09
1.285644568208237e-09
1.0545144269630068e-09
9.142295991049876e-10
8.680262465533276e-10
8.685562445759461e-10
8.659227143352559e-10
8.363018607296817e-10
7.830752531002294e-10
7.221445967495423e-10
6.670914379267432e-10
6.227091617018526e-10
5.865792609679421e-10
5.538952142183384e-10
5.212215626801351e-10
4.876217979003826e-10
4.5386485578931806e-10
4.2113524460885195e-10
3.9020855269246125e-10
3.612879151063807e-10
3.342276564522336e-10
3.088079546761663e-10
2.8488291888733375e-10
2.6239452190463504e-10
2.4132394018233715e-10
2.2164516956026367e-10
2.033071478236239e-10
1.862395219707361e-10
1.7036610677894853e-10
1.5561502169553295e-10
1.4192238813102975e-10
1.2923120170421902e-10
1.174888054280035e-10
1.0664481978345335e-10
9.664994012142027e-11
8.745566203068687e-11
7.901426776216106e-11
7.12789009702038e-11
6.42037865603707e-11
5.774433763113931e-11
5.185737660846757e-11
4.65013717806561e-11
4.1636568699154335e-11
3.722519046418593e-11
3.323149544479289e-11
2.9621802206561885e-11
2.636451415558571e-11
2.3430028248235726e-11
2.0790707231469774e-11
1.8420791626635265e-11
1.6296307866998433e-11
1.4395018136869582e-11
1.2696306175816802e-11
1.1181124375579948e-11
9.831903373328773e-12
8.632465588202279e-12
7.567963192507283e-12
6.62477407194894e-12
5.7904456987060696e-12
5.05360741043157e-12
4.403904944289587e-12
3.831941822337731e-12
3.3292055778031677e-12
2.8880226781800946e-12
2.501482869561587e-12
2.163385779312797e-12
1.868169578968916e-12
1.6108453246096474e-12
1.3869390199718746e-12
1.192430189371753e-12
1.0237162865279712e-12
8.77572009318335e-13
7.511326636077214e-13
6.418703281798862e-13
5.475767458981144e-13
4.66336379193669e-13
3.964909782432229e-13
3.365995769021967e-13
2.853910194089158e-13
2.4172692861644117e-13
2.0456962728262173e-13
1.7297219832388452e-13
1.460785472789198e-13
1.2313931366077464e-13
1.0352579861783623e-13
8.673966887375901e-14
7.240519726011499e-14
6.02458517170434e-14
5.004601522831019e-14
4.160893094821708e-14
3.472145417306823e-14
2.913651746138843e-14
2.4578463996035927e-14
2.0769121931328566e-14
1.7465833913610333e-14
1.449760305902954e-14
1.1786245865582258e-14
9.343283170758769e-15
7.241902763944687e-15
5.5713063408547955e-15
4.387630874229661e-15
3.677141100735867e-15
3.3440881390575193e-15
3.227769084421218e-15
3.1435487560406623e-15
2.934664530582503e-15
2.517379576835164e-15
1.9042904551328737e-15
1.1972723163419153e-15
5.519480736016303e-16
1.248530394835564e-16
2.836337320731014e-31
5.095156230925414e-09
2.789570412413835e-08
7.549131462898979e-08
7.918495274941586e-08
4.5960659435835665e-08
3.924531836176536e-08
9.650886354665867e-08
1.6306756640709232e-07
1.4969437820493857e-07
1.1266598511637156e-07
1.3574669953098619e-07
2.1707647347186474e-07
3.1783412334029015e-07
3.1721592678940916e-07
3.0011703379400027e-07
3.591807887514798e-07
4.566879363148434e-07
5.356136961591023e-07
5.234779488784136e-07
5.638949445032053e-07
6.670575295436733e-07
9.088663020068747e-07
1.0544995351531337e-06
1.1866403110007566e-06
1.3723626539441496e-06
1.5930005357233348e-06
1.816378836173753e-06
1.9429643381439773e-06
2.1905757948412197e-06
2.5103223631834168e-06
3.046248685398556e-06
3.361435557799395e-06
3.700153063842718e-06
3.924497197555909e-06
4.415048004540274e-06
4.5239767066454884e-06
4.904835058978376e-06
5.396641580988363e-06
6.275892370883021e-06
6.872208276313793e-06
7.786052720079626e-06
8.308611943006287e-06
8.96420036440437e-06
9.17716305162427e-06
1.0028352342034751e-05
1.0845579041098178e-05
1.2126642720314706e-05
1.2834976450856101e-05
1.3870165854498178e-05
1.4219397589200604e-05
1.4800789853475165e-05
1.5025602339292543e-05
1.6099950237401947e-05
1.729216461355846e-05
1.890074178138399e-05
2.0055060283438797e-05
2.0744035259829243e-05
2.097419512998199e-05
2.0844025863620055e-05
2.1579134428868263e-05
2.2393372217464852e-05
2.3920900834165883e-05
2.428566791912172e-05
2.4854932654722813e-05
2.399933780790285e-05
2.3539828319194216e-05
2.3247191616329086e-05
2.403696307123496e-05
2.525343851246641e-05
2.5438247946384808e-05
2.5241782008828387e-05
2.3617863921936083e-05
2.2944477245107673e-05
2.270869108402534e-05
2.430735528230887e-05
2.5655802431217546e-05
2.6165197592126164e-05
2.5920803565681646e-05
2.4426648304493503e-05
2.4332062632509087e-05
2.4516874621248395e-05
2.5980040920750663e-05
2.58932018137301e-05
2.3843220711523018e-05
2.1551055694790706e-05
1.9167258021907254e-05
1.9393052424810748e-05
2.051622394936719e-05
2.164272010484592e-05
2.107677902072851e-05
1.779903034713169e-05
1.534123754998768e-05
1.411297827943486e-05
1.5193564619915858e-05
1.6560402252966126e-05
1.5521479618168642e-05
1.364859764662181e-05
1.1284626391135337e-05
1.1395556844252805e-05
1.321918783996264e-05
1.3481880545687823e-05
1.1917822403606812e-05
8.17539566273335e-06
5.645055795139522e-06
6.13505068291045e-06
7.71240808151083e-06
8.408292081970997e-06
6.0924409020748665e-06
2.7318136939453746e-06
1.7204625303792593e-06
3.1565852623350063e-06
5.748757746892476e-06
6.12157420115842e-06
3.2751441400933805e-06
7.30296739026184e-07
5.721026730330421e-07
2.8062620551939293e-06
5.263000318773555e-06
4.538272570123539e-06
1.682438332457372e-06
5.873674276745873e-25
5.345407993380257e-26
4.638819305144056e-27
5.663002387474072e-28
1.2887072495527586e-10
5.271266230332111e-11
6.321392794608767e-13
1.244694971231933e-10
4.887008898283246e-10
1.1667548302133964e-09
1.98246524655165e-09
3.058124391468133e-09
3.811119989752802e-09
4.142954931854299e-09
3.937931094598356e-09
3.166851317088592e-09
2.4656383151090243e-09
1.4340591998247008e-09
1.21271908463389e-09
1.6043518812459973e-09
3.6403386681348015e-09
5.974436021254949e-09
9.593652273319067e-09
1.3024925416108497e-08
1.5812450858387302e-08
1.8795422608106955e-08
1.8336304262930505e-08
1.7548561967092118e-08
1.4979113316943868e-08
1.1082109717152822e-08
8.622974206409878e-09
5.295239096776496e-09
3.92023542112121e-09
3.8541042197608e-09
5.413498201073595e-09
9.464897145216486e-09
1.3038583925819988e-08
1.828872040706671e-08
2.3198626434843195e-08
2.672733914298644e-08
3.199587073901749e-08
3.510010973687176e-08
3.704958195655778e-08
3.9786125943536344e-08
3.825114130583974e-08
3.562815602144623e-08
3.4491844731161916e-08
2.9896622881110835e-08
2.4966309560562043e-08
2.2680199621859958e-08
1.8634222097713477e-08
1.4366003649026557e-08
1.2627283265708608e-08
1.0146595582717075e-08
7.289409978845021e-09
6.518416530139219e-09
5.731515028268667e-09
4.431266420339206e-09
4.429364110298664e-09
4.380595688458748e-09
3.6610410329418296e-09
4.2442405695470095e-09
5.082335148302779e-09
4.075660651881827e-09
3.2561735415044e-09
4.228838732032363e-09
4.701929558649856e-09
4.122216722042089e-09
4.645303738391075e-09
5.716443160244996e-09
6.445246972071888e-09
1.0310305511019069e-08
1.916279941355216e-08
2.8891284650967122e-08
3.69800460674041e-08
4.466913952350075e-08
4.895279103279132e-08
4.473300888822105e-08
3.480358167691761e-08
2.5820690146305037e-08
1.8131339309901024e-08
9.750617566269512e-09
3.4521204713190872e-09
1.6249078093258775e-09
1.622523484352453e-09
1.005317846513966e-09
3.7803519872771054e-10
7.970995470131534e-11
1.6226053412775885e-10
1.8861219088298423e-09
5.078152735088656e-09
7.74834714696636e-09
1.0034611189631121e-08
1.327151142782482e-08
1.565075658596092e-08
1.5049755288573746e-08
1.408240006429984e-08
1.580219273154557e-08
1.755593884325391e-08
1.547091541305983e-08
1.1257494447132743e-08
8.659002344447237e-09
7.183313733290222e-09
4.634060986903511e-09
1.8989359850940085e-09
7.147832513915177e-10
3.9974810827361424e-10
3.372315790680435e-10
1.975170555003477e-09
5.603169801896224e-09
9.051739040548165e-09
1.1891164763575888e-08
1.6694214021401802e-08
2.3774794716878943e-08
2.9117343080782004e-08
3.046300223560973e-08
3.1251851344097404e-08
3.4866727375116124e-08
3.850902605749452e-08
3.717113209456444e-08
3.12894845863457e-08
2.5739965105957422e-08
2.2362744519698565e-08
1.82297285004531e-08
1.159758209180724e-08
5.242853814703153e-09
2.2793500128560415e-09
2.032759063493338e-09
2.498894621838491e-09
4.52213929531887e-09
1.038861229008737e-08
1.92227293272673e-08
2.6994598562903867e-08
3.1566664250899616e-08
3.511616996198602e-08
4.0106408088839085e-08
4.466438869718843e-08
4.419187377916803e-08
3.7143751641332705e-08
2.7159027445612275e-08
1.8910875756450916e-08
1.34033625989722e-08
8.61753258590328e-09
3.913808084843928e-09
1.891377136522718e-09
5.261750414553514e-09
1.2970963757397248e-08
2.0620766168071935e-08
2.469871983330468e-08
2.555484595522045e-08
2.5850044931923983e-08
2.6669274073359628e-08
2.5998177951052702e-08
2.1257693621838884e-08
1.2930105722116367e-08
5.193695289209393e-09
2.7429343238392426e-09
6.83602115320628e-09
1.4207567904312834e-08
1.964601455415345e-08
1.982657606796215e-08
1.52853565413184e-08
9.372509745637882e-09
5.5131198311535025e-09
5.047848225632971e-09
6.967597647954497e-09
9.204233762077161e-09
1.018790244134364e-08
9.599556899303573e-09
8.116136063778335e-09
6.657036308547423e-09
5.771433258735454e-09
5.479756456931199e-09
5.4831022775191555e-09
5.466477083985841e-09
5.2794838168473604e-09
4.943469960127975e-09
4.558821271348701e-09
4.2112765931416e-09
3.93109605058043e-09
3.703011868078967e-09
3.496680991649899e-09
3.290415739073818e-09
3.078304033080714e-09
2.8652000834779706e-09
2.6585815636910934e-09
2.4633446795608246e-09
2.2807718009408984e-09
2.1099432946888334e-09
1.9494714477904657e-09
1.798435266722512e-09
1.6564684321235712e-09
1.5234521129713304e-09
1.3992221477957904e-09
1.2834561863197364e-09
1.175710097600399e-09
1.0755029325104854e-09
9.823809168415478e-10
8.95940791919738e-10
8.158226952094431e-10
7.416942088071788e-10
6.732372922213711e-10
6.101406904979217e-10
5.520982004988338e-10
4.988085851996093e-10
4.499760455232244e-10
4.0531160821530484e-10
3.645338009557653e-10
3.273700483575242e-10
2.935581651856811e-10
2.628471858766928e-10
2.3499862892001233e-10
2.0978686123852836e-10
1.8699925555462356e-10
1.6643634596485573e-10
1.47911251634558e-10
1.3124950155388355e-10
1.1628847890100907e-10
1.0287684112422422e-10
9.087420328171692e-11
8.0150417135841e-11
7.05852371816166e-11
6.206774991867949e-11
5.4495828016741536e-11
4.777573873442969e-11
4.182148712739684e-11
3.6554461725074926e-11
3.1902880757427014e-11
2.780137887535584e-11
2.419063712291775e-11
2.1016917211727993e-11
1.823177695531681e-11
1.579159266302296e-11
1.3657222048405106e-11
1.179355388577923e-11
1.0169093508055407e-11
8.755597057391277e-12
7.527683702647257e-12
6.462610956110811e-12
5.540017831924851e-12
4.741819823720587e-12
4.052058436392214e-12
3.4567931798318322e-12
2.943931471122205e-12
2.5030049572467486e-12
2.124916973713658e-12
1.801642850738507e-12
1.5259961356695133e-12
1.29142608353731e-12
1.091954908504784e-12
9.22178178193616e-13
7.773652603409509e-13
6.535472466271734e-13
5.475782126063331e-13
4.570862330222372e-13
3.8032559068420565e-13
3.1593511852888643e-13
2.6267271172368785e-13
2.1919281064875306e-13
1.8393570508437733e-13
1.5516120315315201e-13
1.3111323587264027e-13
1.10259933433838e-13
9.152181087632814e-14
7.440530414990761e-14
5.898314306416142e-14
4.5717354272139275e-14
3.5171058497440505e-14
2.7698642419119028e-14
2.3213396795100884e-14
2.111086922234175e-14
2.03765595246358e-14
1.9844885637952396e-14
1.8526221959578133e-14
1.5891946868523338e-14
1.2021581097139942e-14
7.558251530101076e-15
3.484388902085412e-15
7.881838273832335e-16
1.6752660042578228e-16
2.0211610020235935e-08
1.2116610600505052e-07
3.052323861297874e-07
3.265968678134789e-07
1.9498878938797312e-07
1.5392195038557977e-07
3.7758498175710604e-07
6.349987583051e-07
6.053223286060306e-07
4.452742896837498e-07
5.188323911652903e-07
8.345527575775977e-07
1.2373457775652921e-06
1.2580164522458412e-06
1.179751372361314e-06
1.434681412802278e-06
1.8380363588322935e-06
2.1909954472233143e-06
2.138614242420167e-06
2.286228833952535e-06
2.71929454773229e-06
3.675245365580869e-06
4.260980309433987e-06
4.7341082279330665e-06
5.452283093777977e-06
6.3082127804047685e-06
7.186992300226162e-06
7.63961067145228e-06
8.597108949934782e-06
9.786196587462764e-06
1.2026645663108609e-05
1.322478389411443e-05
1.4570564693491709e-05
1.5592705986163887e-05
1.756841527879588e-05
1.7978539638713685e-05
1.955071719900812e-05
2.1473021977814526e-05
2.4938673930927002e-05
2.712037240936144e-05
3.0584114594685606e-05
3.2712712713007726e-05
3.5221368516098354e-05
3.58895402671802e-05
3.925879188843684e-05
4.241237755733862e-05
4.752591530114509e-05
5.0472775159532104e-05
5.4815319982911576e-05
5.626912141530386e-05
5.880885866188541e-05
5.963315957660763e-05
6.400404829858465e-05
6.85036073458485e-05
7.495440552715502e-05
7.92949388137779e-05
8.227025696614423e-05
8.31400334231642e-05
8.288853350424199e-05
8.567754323508929e-05
8.895116487371831e-05
9.526903956118787e-05
9.685641128592845e-05
9.908686365294531e-05
9.573989951571814e-05
9.444889160573324e-05
9.30839753132071e-05
9.646476952153161e-05
0.00010114455583043019
0.00010229968918813281
0.000101646921059931
9.525138577194609e-05
9.292409848198633e-05
9.145411559838649e-05
9.764481900705001e-05
0.00010272309402322421
0.00010459673126505776
0.00010318777671023953
9.702256187105009e-05
9.660456020785512e-05
9.687317828863031e-05
0.00010250541679580014
0.0001018417447631742
9.375646241636293e-05
8.4486192842662e-05
7.483173014477578e-05
7.584223426698339e-05
8.008112547231013e-05
8.5151654012975e-05
8.343793895342179e-05
7.110388312653308e-05
6.198163175823457e-05
5.690081365695258e-05
6.136208329060578e-05
6.625216284356207e-05
6.18860971757866e-05
5.431268750337543e-05
4.463577814814839e-05
4.5102654706953964e-05
5.209105480013099e-05
5.328369792426885e-05
4.719475322460281e-05
3.230863537213366e-05
2.245554519754653e-05
2.444365817900671e-05
3.073230695099462e-05
3.383663248365361e-05
2.4474412830494883e-05
1.1148784653105793e-05
7.033715853327407e-06
1.2452167681869799e-05
2.2741134683325515e-05
2.4125986444255747e-05
1.2763121318309205e-05
2.8061957166624717e-06
2.2011878779594962e-06
1.1138634298858035e-05
2.09814960925102e-05
1.8029962377533357e-05
6.643800680414493e-06
1.7148587065442576e-24
1.561222137550045e-25
1.3546532785703535e-26
1.5948159810800253e-27
5.076122153681882e-10
2.2866665847247837e-10
2.772906219653391e-11
4.079829653648651e-10
1.5574746101510954e-09
3.829047837428026e-09
6.47219680477064e-09
1.0124339669057929e-08
1.2529929364740738e-08
1.3438073228507146e-08
1.2644191046438527e-08
9.746462354677787e-09
7.288990534439445e-09
3.5443664753217343e-09
2.5822385311648265e-09
3.795209454317357e-09
1.0492442993352556e-08
1.789008026321031e-08
3.03012064934621e-08
4.10369144599715e-08
5.049500130905506e-08
6.061949751531618e-08
5.756919866171975e-08
5.55579993905588e-08
4.6176777976485637e-08
3.221589281382227e-08
2.4534199066705165e-08
1.250079035685136e-08
7.53284365197657e-09
6.680651582661607e-09
1.1256370188735366e-08
2.3786695418904927e-08
3.346768438302443e-08
5.0217775576951064e-08
6.462402777717486e-08
7.366032533928457e-08
9.104990854518999e-08
9.944497996932098e-08
1.0328177143864791e-07
1.1298338748748833e-07
1.072703215553606e-07
9.665762034733787e-08
9.413389131930681e-08
8.030224184446259e-08
6.34043028868768e-08
5.6909458411885504e-08
4.5599000808476944e-08
3.1733695009902785e-08
2.6418018432560755e-08
2.0087709556472004e-08
1.1789738321318862e-08
9.578760034009768e-09
8.153086595612061e-09
5.764367112665326e-09
7.40333783882733e-09
8.808622977319375e-09
9.126733710566765e-09
1.4261700208271559e-08
1.867822573584448e-08
1.7051479153853105e-08
1.8883433586000627e-08
2.6471589971215305e-08
2.9095171588862836e-08
2.8328443881772134e-08
3.3070665522793785e-08
3.71480469025005e-08
3.5749996902948806e-08
4.240536959878855e-08
6.275768234784664e-08
8.26637844636292e-08
9.791794118037422e-08
1.1738377718133256e-07
1.32479709889197e-07
1.2546174397146654e-07
1.0298441085702691e-07
8.314078701594382e-08
6.426138090131321e-08
3.906326462002038e-08
1.7465451564779542e-08
9.397092430818994e-09
7.90134947212001e-09
4.87813293042374e-09
2.134109409194098e-09
1.4156853602254784e-09
1.729832778316497e-09
4.531334968286805e-09
9.516342320002323e-09
1.3527823837607798e-08
1.875523561136425e-08
2.8732413085461377e-08
3.698994499099569e-08
3.625454795059459e-08
3.370588351782582e-08
3.898110649558722e-08
4.52902493759072e-08
4.104178348937827e-08
3.0571711351325306e-08
2.5300527018697922e-08
2.4013408962357405e-08
1.8439522225875204e-08
9.490497568428856e-09
3.797912568046359e-09
2.0528543573764064e-09
1.8311786847816643e-09
4.213526754952468e-09
9.341477618839026e-09
1.3854392927585013e-08
1.9089708568941536e-08
3.192378267123906e-08
5.126130089587982e-08
6.477596772047811e-08
6.680679729998677e-08
6.850352293289161e-08
8.021406164590225e-08
9.333433073483828e-08
9.213166092872047e-08
7.734160206120449e-08
6.425500246459123e-08
5.953919567327017e-08
5.357711523213871e-08
3.7906342113000705e-08
1.843101550443151e-08
5.736428453647325e-09
1.145934153474239e-09
8.712628974038254e-11
3.45487814812168e-09
1.614196712671898e-08
3.581916573338254e-08
5.238574733455939e-08
6.112949474992512e-08
6.948849918790763e-08
8.558160447029833e-08
1.0395811031832638e-07
1.09260049747685e-07
9.398529539943986e-08
6.73664528312688e-08
4.456792333398916e-08
3.0924502540745053e-08
2.060169595720006e-08
8.915085190723321e-09
6.954486122786264e-10
4.213367143787123e-09
1.9594798414692974e-08
3.696342467630746e-08
4.6471356383246556e-08
4.7807426906208035e-08
4.821634080556215e-08
5.2194007875425336e-08
5.532127465866348e-08
4.919276776910042e-08
3.1673272081073205e-08
1.1194699435500678e-08
4.91510701871696e-10
5.915855023793402e-09
2.2263016526765185e-08
3.722264070787959e-08
4.0871114301878267e-08
3.2145425285344265e-08
1.7964919072237527e-08
7.074318811728792e-09
4.089838156588693e-09
7.747280209849167e-09
1.3372578479493622e-08
1.6729354345187338e-08
1.6358042664296948e-08
1.3442022072918417e-08
1.0149557593220655e-08
8.02028062326683e-09
7.349602094688906e-09
7.54079363312015e-09
7.819354995949772e-09
7.738580321234758e-09
7.274337960584963e-09
6.638643788672646e-09
6.048010235660839e-09
5.599937660943938e-09
5.275990542601395e-09
5.008133715482585e-09
4.739730465739361e-09
4.44974407729638e-09
4.145396536840543e-09
3.843589026290392e-09
3.5571075118079507e-09
3.2905057137210544e-09
3.042583232311743e-09
2.8104381812699454e-09
2.5919981548200836e-09
2.386522231197606e-09
2.193987065974607e-09
2.014365750645462e-09
1.8472869962738696e-09
1.6920672608251945e-09
1.5478979274719252e-09
1.4140076679386425e-09
1.2897336026725918e-09
1.1745164907659476e-09
1.0678664376071712e-09
9.693304180371707e-10
8.784719778554294e-10
7.948635968256736e-10
7.180842636751378e-10
6.47718989879238e-10
5.833599210575214e-10
5.246070598380047e-10
4.71070360642162e-10
4.223723544606034e-10
3.781501830384942e-10
3.3805808940339344e-10
3.0176861429703655e-10
2.6897327427873755e-10
2.3938295475401446e-10
2.1272723309085098e-10
1.8875403816119226e-10
1.672287685469267e-10
1.4793337037109343e-10
1.3066571421152747e-10
1.1523852102179904e-10
1.014787782935682e-10
8.922688771251084e-11
7.833588253689708e-11
6.867082592613801e-11
6.010791480131585e-11
5.253394943842432e-11
4.5845561864540566e-11
3.994863104371253e-11
3.4757735313899225e-11
3.019550759457204e-11
2.61921977972125e-11
2.2685004780610547e-11
1.9617579413400673e-11
1.6939379863244245e-11
1.4605084410086034e-11
1.2574054616962963e-11
1.0809792697710607e-11
9.279600687614494e-12
7.9542175319976e-12
6.807652377961053e-12
5.8169652058406965e-12
4.962106979060498e-12
4.225671772702001e-12
3.5925848131381654e-12
3.0497408644492846e-12
2.5855889323330194e-12
2.189796624000415e-12
1.8529665719749783e-12
1.5665378014871949e-12
1.3227804480222503e-12
1.114926057512418e-12
9.372847381965436e-13
7.853269888317743e-13
6.556148684219089e-13
5.455988948283235e-13
4.5328354730841567e-13
3.7686061081733805e-13
3.1439797320638233e-13
2.6368317939314513e-13
2.2226342888208325e-13
1.8766855220618477e-13
1.577381405374825e-13
1.3093626425356868e-13
1.0653673005431054e-13
8.4599893062758e-14
6.57316012749517e-14
5.068839211774682e-14
3.994978446704628e-14
3.33954085928874e-14
3.01944554719511e-14
2.894914222606424e-14
2.804758160473111e-14
2.611312051946305e-14
2.2398587368484675e-14
1.6992978117996292e-14
1.0764977989168053e-14
5.0581289669544354e-15
1.2332454135216718e-15
2.2868489681505284e-16
4.0981406473234666e-08
2.555951899628375e-07
6.263835323368857e-07
6.707525396345795e-07
4.035191943062269e-07
3.0582719230566053e-07
7.430489487608251e-07
1.2471223922380423e-06
1.20090385636635e-06
8.794358157285545e-07
1.0094221427403797e-06
1.6207941639918905e-06
2.4248723922523215e-06
2.49414986533006e-06
2.3530838018683803e-06
2.8951431445786246e-06
3.711216562636836e-06
4.452999305957191e-06
4.376619708428441e-06
4.684212697659684e-06
5.5625415091137305e-06
7.475919653331269e-06
8.659562474533577e-06
9.553952398043314e-06
1.0973847508919367e-05
1.2629109608006447e-05
1.43141834124092e-05
1.5192452742671029e-05
1.708668267708913e-05
1.9347745255090116e-05
2.383360538515254e-05
2.6269964382841862e-05
2.9091411175042724e-05
3.12704504756004e-05
3.521849369302884e-05
3.606758503814418e-05
3.928514385709273e-05
4.3143168064557236e-05
5.002543143038302e-05
5.416116138463224e-05
6.077221055513808e-05
6.488705594379385e-05
6.968554830387808e-05
7.078891734615293e-05
7.730966134168113e-05
8.348507637560445e-05
9.37867102269668e-05
9.999471087807165e-05
0.00010904710173224341
0.00011222531225409793
0.0001175784192530596
0.00011928701098979543
0.00012810143743217705
0.00013694267174424666
0.00014987711422756382
0.00015827930652074793
0.0001643003385690412
0.00016610371331994458
0.0001659261251045963
0.0001713262131973094
0.00017796490265300328
0.00019102374500536612
0.00019469653701964
0.00019922941572304397
0.00019265695986712538
0.00019070943238985705
0.00018800509078925417
0.0001950736341228425
0.0002046275282459249
0.00020756510194764493
0.00020647861579408557
0.00019392530530385477
0.00018973504087578668
0.0001864499650600089
0.00019841240608836158
0.000208207724884266
0.00021154467320163005
0.00020761113096468914
0.00019436335684847882
0.00019285268245250478
0.0001925292509510958
0.00020308391621730486
0.00020136698557316984
0.0001852534120094221
0.00016644341150636412
0.00014713061215871305
0.00014936781396531515
0.00015795787373646967
0.00016900576959214103
0.00016662388093181325
0.00014316177052742552
0.00012606027558243705
0.00011625802613585867
0.0001253870989610408
0.00013456730715902729
0.00012514697644018898
0.00010908177147883627
8.873750394940386e-05
8.917511320875349e-05
0.00010271633571442125
0.00010538142982013275
9.355788571470161e-05
6.406972585121656e-05
4.4872496313191845e-05
4.915567437665953e-05
6.201040467294978e-05
6.860042285698988e-05
4.972960070551327e-05
2.2938758370869042e-05
1.4470741618007922e-05
2.4957627933768098e-05
4.539425571339332e-05
4.8016515602597715e-05
2.5232751704794004e-05
5.424217305873704e-06
4.299774656615052e-06
2.2331735573109493e-05
4.2114039826260755e-05
3.615836694799738e-05
1.3313884862041078e-05
3.436446459602387e-24
3.1299511648342763e-25
2.7207880102027824e-26
3.0133366905163424e-27
9.812110156184108e-10
5.473093485261278e-10
2.6920197285762245e-10
8.044817618867891e-10
2.431071031955725e-09
5.742566401204857e-09
9.413305853859971e-09
1.4674367045286258e-08
1.77207747235233e-08
1.8467699662137507e-08