# vtk DataFile Version 4.1 
COMMENT
ASCII
DATASET STRUCTURED_POINTS 
DIMENSIONS 400 400 1 
ORIGIN 0 0 0
SPACING 0.002506265664160401 0.002506265664160401 0 
POINT_DATA 160000
SCALARS U double 1
LOOKUP_TABLE default
1.2238881071221633e-06
1.209212075477058e-09
4.224772683250728e-09
6.683365373213869e-09
7.377329997755555e-09
5.581227453452127e-09
3.0590958954512563e-09
1.2716006506722365e-09
3.923116124220612e-10
2.8196027455851955e-10
5.145347782546324e-10
9.643999619403295e-10
1.5910896213165525e-09
2.245705424641048e-09
3.030094894028272e-09
4.226389044095405e-09
6.623603214815192e-09
1.0686367270561842e-08
1.4687000732381634e-08
1.6003639485551922e-08
1.4205913062640156e-08
9.318900016555423e-09
3.865715915768469e-09
5.788557241887635e-10
3.2691068838114704e-10
2.355432024730434e-09
4.906797241140499e-09
5.84936893414288e-09
5.059082464289724e-09
2.959431625909542e-09
9.74595545803775e-10
1.8971146942614678e-10
6.376216833189773e-10
1.6433793366263504e-09
2.707211176753309e-09
4.371536672027385e-09
7.52912757777006e-09
1.2213585386601381e-08
1.599602133214389e-08
1.6138706907597522e-08
1.1295669605060763e-08
4.416812500339637e-09
4.804219711615999e-10
2.4986868509123724e-09
8.219902907195928e-09
1.2054971260996841e-08
1.0876200312867754e-08
5.390670691780135e-09
7.644533118223227e-10
9.445478537049206e-10
5.412671664106937e-09
9.762620600387246e-09
1.0112544514611148e-08
6.022539003630013e-09
1.6440050331098254e-09
5.988978314469347e-10
2.996476257212734e-09
6.251378130294449e-09
6.668602400361981e-09
4.159832171472188e-09
1.1244549792224823e-09
3.7807900622448923e-10
1.9577633634379307e-09
3.689465017633997e-09
3.235905579024223e-09
1.9131217588841215e-09
2.0296110953072968e-09
4.851258346831802e-09
8.928221708698158e-09
1.1576060993408378e-08
1.0776710976309615e-08
8.126232468369608e-09
5.17409905195891e-09
3.0521166122458495e-09
1.8159874454721668e-09
1.3974466910548326e-09
1.1454895375955842e-09
1.1973493237488618e-09
1.439446939346805e-09
1.9302521449365804e-09
2.775877832005436e-09
3.616960981753213e-09
4.188415003606193e-09
4.604175397518466e-09
5.045012211101986e-09
5.066518307489814e-09
4.137118784595682e-09
2.7061718463741987e-09
1.105126857901633e-09
5.211789867397161e-10
6.773315818368683e-10
1.4222573485602344e-09
2.639557172248968e-09
4.9953439046178506e-09
7.660114612212852e-09
9.440047118966475e-09
9.365755354946388e-09
7.831568605996722e-09
6.263357708876363e-09
5.235185153366283e-09
4.438256048694016e-09
3.89717968246647e-09
3.752035158116508e-09
3.626811283380276e-09
3.1015068137649833e-09
2.2351854601308513e-09
1.7799838296245218e-09
2.6956462166953696e-09
3.931742789034772e-09
3.726183152441619e-09
2.121358610623059e-09
3.8391531742343066e-10
1.0048184340351142e-10
1.0444782095516305e-09
2.035958998265814e-09
2.145993257457947e-09
1.9264961800713363e-09
1.5232593213289598e-09
1.0610917896749338e-09
4.1525762685544303e-10
1.2243418490251014e-28
1.1726182312768412e-29
7.20239062118026e-31
8.044093951009724e-31
2.359400842519151e-12
1.1490497088393662e-11
3.9111746228083604e-11
7.85548129910876e-11
9.60929967955691e-11
7.367515738363677e-11
2.6968659662400247e-11
1.2878370426291979e-11
5.4998761145251416e-11
9.834088794527619e-11
1.071037545306654e-10
7.365111930748984e-11
5.305741416620206e-11
1.0179268183717657e-10
1.5971212455988986e-10
1.796194199130576e-10
1.4976965929496522e-10
8.883402697591547e-11
4.367629868666745e-11
3.453602355326181e-11
1.079326249068646e-10
2.106787413088846e-10
2.3744791654649176e-10
1.6733916857925543e-10
4.4736509800741865e-11
8.854598889226462e-14
2.6092950126956395e-11
7.706539005875092e-11
1.0345475595753977e-10
7.867667200134772e-11
6.134593034261434e-11
9.198634011355535e-11
1.847225521299018e-10
2.631431306102049e-10
4.2887210476496424e-10
7.094953690386069e-10
9.340543716010787e-10
8.647498118073298e-10
5.042626957756209e-10
2.814697395027759e-10
4.000028803400238e-10
7.433493802691343e-10
7.731693364895144e-10
4.788813070310474e-10
9.206591356866675e-11
7.390584019539548e-11
3.890436193882484e-10
7.687311541618307e-10
5.852016330137656e-10
9.464682637792903e-11
1.1260114857717258e-10
9.793432859073198e-10
1.892709449814956e-09
2.0750104539397306e-09
1.484178797099156e-09
6.600458122550128e-10
2.3483117943383177e-10
6.681024120704533e-10
1.3293369606411894e-09
1.5125781159791957e-09
1.2209697781067712e-09
8.956845579891726e-10
8.919796289670487e-10
8.466877087311337e-10
8.787223189194228e-10
1.2046518373342635e-09
1.6567695948999341e-09
2.1860822960490982e-09
2.2899177609511554e-09
2.1712661437610007e-09
1.9305963831002774e-09
2.0973906004112892e-09
2.345559083377204e-09
1.8625695233167968e-09
1.3379264125175816e-09
1.1824767097016962e-09
1.831704447905165e-09
2.7336907718144714e-09
2.4847860441657417e-09
1.4768932582140253e-09
1.4589030491859016e-09
3.088555030985645e-09
5.140219041922564e-09
5.433861893730408e-09
3.976867548306359e-09
3.225414345044568e-09
4.63908158277395e-09
6.534120669204376e-09
6.215811547838693e-09
3.7136630299792736e-09
1.4179299186434146e-09
1.6339402083447081e-09
3.866961434922245e-09
5.170462649827179e-09
3.7044271229431915e-09
1.2119974685048204e-09
1.2879370445529372e-09
4.185705785066329e-09
7.146493482052724e-09
7.227275664744858e-09
5.387599375819824e-09
4.434610180753323e-09
5.786530023500674e-09
7.280074740470749e-09
6.62223204268133e-09
3.885815965850294e-09
2.1307517866196956e-09
2.8039465582226002e-09
4.297965556053931e-09
3.877293214357293e-09
1.7491815066884135e-09
3.1713471021945315e-10
1.3838431876471203e-09
3.5652205739215616e-09
4.282338412989249e-09
3.506997640624355e-09
2.850808025949258e-09
3.9926808284896055e-09
5.5874418257633285e-09
5.550134780937715e-09
3.509274644074427e-09
1.7381237833035742e-09
2.1472410515032494e-09
3.9819029908390634e-09
4.408824971722369e-09
2.581281747385476e-09
4.02238447946863e-10
2.621164415332563e-10
1.7347218594576313e-09
2.8600676411520792e-09
2.4411246585236117e-09
1.866216172495954e-09
2.1890858298438256e-09
3.104087660825232e-09
3.0960676789217192e-09
2.1557368888549953e-09
1.4765807524821466e-09
2.3058083438811025e-09
3.673943146921697e-09
3.747762841606966e-09
2.0271514653507624e-09
3.799488325126667e-10
1.697677756053091e-10
1.1423220180066502e-09
1.924986601891961e-09
1.8491132480499033e-09
1.686105675724748e-09
1.812614179053166e-09
2.0247231798371957e-09
1.7420138591598011e-09
1.3201056308588179e-09
1.7970456524666933e-09
3.2456589481603824e-09
4.1684593967236556e-09
3.4319502664488475e-09
1.6783391314533545e-09
3.232798617276963e-10
1.0176374593590455e-10
4.087569424487359e-10
4.659790688980292e-10
2.6100172994664957e-10
3.6619568537415747e-10
7.014354888584493e-10
6.342194346638904e-10
1.9359039753599142e-10
2.962577880692916e-10
1.5187314795366324e-09
3.219326767983315e-09
4.002830310662659e-09
3.091052794987599e-09
1.2793088957229264e-09
1.442648164606673e-10
1.0490877132191234e-10
5.688805152471061e-10
7.83279052557488e-10
5.501115417347709e-10
1.728779942339656e-10
3.152205134779613e-11
1.901098699173086e-11
1.1799347413201575e-10
5.255879863281283e-10
1.2285251883582913e-09
1.7507441624895636e-09
1.4966026287009473e-09
6.848865380701697e-10
5.238454139728558e-11
1.9021756654866326e-10
8.755382206037426e-10
1.3405379311584074e-09
1.2901542214354104e-09
8.143800825223185e-10
4.4980763701358403e-10
2.7669033286250884e-10
1.4263588304522015e-10
6.90369772607968e-11
3.1138154356153754e-10
8.479347903929893e-10
1.3899096906151178e-09
1.4469711807330465e-09
8.541885703802465e-10
4.024669624126388e-10
6.612791165975739e-10
1.500477446781221e-09
2.0830038479795956e-09
1.8398047709730222e-09
9.682567667820213e-10
2.385070072828849e-10
7.007185301706691e-11
2.224966065906647e-10
1.9494613402347977e-10
2.3059845046949205e-11
9.521758634432115e-11
6.467036634749361e-10
1.3913459486539314e-09
1.7501717026542794e-09
1.5768850360057427e-09
1.251226003499939e-09
1.1443681741855084e-09
1.2526844078978206e-09
1.5559323773932496e-09
1.7126507625581333e-09
1.511237176068342e-09
1.0083339602029112e-09
4.875470263641844e-10
2.292653498428079e-10
1.5836218604344497e-10
2.1584142043244761e-10
2.99104555755717e-10
4.679030187953983e-10
7.049198441843883e-10
7.862581743785161e-10
7.549212529206415e-10
6.144177125920851e-10
3.2332081484809085e-10
1.776093937273341e-10
4.509656747693533e-10
1.049893955004281e-09
1.6229486052441872e-09
1.7686253247231099e-09
1.4084182738118597e-09
9.274389379495519e-10
5.755410163897684e-10
4.3401573655687565e-10
5.524192315891975e-10
8.68686423317186e-10
1.1931818802240254e-09
1.3438797361967693e-09
1.2770019412397864e-09
9.615362235502804e-10
5.485747301553861e-10
2.464813062875006e-10
2.911580028078272e-10
7.730869045550233e-10
1.4336075871206203e-09
1.8277576511733919e-09
1.7118301445044413e-09
1.1639203251241746e-09
4.967078148696581e-10
1.4330568090672127e-10
3.387574395676241e-10
8.413863753288807e-10
1.3156721223967368e-09
1.5344744256747502e-09
1.2997306185442e-09
8.606754723473256e-10
4.531124288338707e-10
1.5444804731748413e-10
1.2218218258039496e-10
3.291330549039681e-10
7.671207845343053e-10
1.2777318756338022e-09
1.5363021227210825e-09
1.445556154800636e-09
8.955573206454452e-10
2.3379815748109455e-10
6.918717894795948e-31
1.1417072592854669e-09
7.633625947032354e-09
2.6670536152604055e-08
4.219136771879758e-08
4.657229185250179e-08
3.523368941560805e-08
1.931174380041157e-08
8.027478320877038e-09
2.476621069737213e-09
1.7799849270055664e-09
3.248202787245173e-09
6.088153370350948e-09
1.0044377875191305e-08
1.4176897127137947e-08
1.9128663593521413e-08
2.6680740064997853e-08
4.181409563207711e-08
6.746188872112856e-08
9.27174580443716e-08
1.010292570686278e-07
8.968040326050582e-08
5.882921483075064e-08
2.4403849346959313e-08
3.6542540100025537e-09
2.06375206119572e-09
1.4869589367406493e-08
3.097608392805662e-08
3.6926437781248616e-08
3.1937444184339965e-08
1.8682573972062397e-08
6.152516996139613e-09
1.197628128953088e-09
4.025237197746242e-09
1.03744772313314e-08
1.7090333368368795e-08
2.759704144934735e-08
4.7530573670055e-08
7.710305264415497e-08
1.0098116448445391e-07
1.0188192319596472e-07
7.130834891164838e-08
2.788286289025666e-08
3.0328523002358964e-09
1.5773941697620045e-08
5.1891364126265714e-08
7.61017387064795e-08
6.866028432661308e-08
3.403072504750257e-08
4.825911645084638e-09
5.962829143441184e-09
3.4169614822604726e-08
6.163037521499065e-08
6.383940729900523e-08
3.8019641829152975e-08
1.0378427186023461e-08
3.7807776803345936e-09
1.8916432750393497e-08
3.946427865542075e-08
4.209817065692318e-08
2.6260573677220525e-08
7.098563502416265e-09
2.3867721555830802e-09
1.235914982356845e-08
2.3291196358726235e-08
2.042792434109687e-08
1.2077332169122127e-08
1.2812716837458083e-08
3.06254728539015e-08
5.636290463729236e-08
7.307842962852373e-08
6.803221883139906e-08
5.1300032707405707e-08
3.2663531547984776e-08
1.926768433520365e-08
1.1464133682069192e-08
8.821930856274408e-09
7.231352410034418e-09
7.55873766958951e-09
9.087073912356534e-09
1.218547445624008e-08
1.7523818587263725e-08
2.283348616810831e-08
2.64410140263063e-08
2.906566473488033e-08
3.1848620187298024e-08
3.19843858637537e-08
2.611718650558888e-08
1.7083772187323374e-08
6.976547148614957e-09
3.2901469617351763e-09
4.275921521718616e-09
8.978557872111518e-09
1.666324090487249e-08
3.153506950350018e-08
4.835748074874326e-08
5.959400347546206e-08
5.9125007549126484e-08
4.9439851395062295e-08
3.953990444824238e-08
3.3049161544710056e-08
2.8018233707695645e-08
2.460247672649691e-08
2.368619493472734e-08
2.28956700642266e-08
1.9579479372229625e-08
1.4110485721169131e-08
1.1236846722490046e-08
1.70173250177535e-08
2.4820669905725423e-08
2.352299399975089e-08
1.3391909046743497e-08
2.4236161612845757e-09
6.343310843204024e-10
6.593678746052594e-09
1.285279046698603e-08
1.3547424926123535e-08
1.2161763453486356e-08
9.616172477245706e-09
6.698558492851613e-09
2.6214767941481167e-09
7.729138582302309e-28
7.402612939261796e-29
4.5467918358996915e-30
5.078150107008164e-30
1.4894644087802856e-11
7.253827388686687e-11
2.4690825281632607e-10
4.959080965813741e-10
6.066247671049413e-10
4.6510335487142804e-10
1.7025025165611594e-10
8.129976919296961e-11
3.472012715117743e-10
6.208154624796452e-10
6.761344979848271e-10
4.649516050787214e-10
3.34945756559513e-10
6.426062665506543e-10
1.008245487140911e-09
1.133918104397255e-09
9.454797718764041e-10
5.607996703433403e-10
2.757237821937427e-10
2.1802220706362916e-10
6.813670676380739e-10
1.3299922641850357e-09
1.498983192094712e-09
1.0563941967892306e-09
2.824167810761243e-10
5.589813168603725e-13
1.6472199142170623e-10
4.865055295933583e-10
6.53098761943648e-10
4.966773794238681e-10
3.8727026888436404e-10
5.806998845809176e-10
1.166133629937943e-09
1.6611943184713054e-09
2.7074235308149825e-09
4.478968055504804e-09
5.8965849180591286e-09
5.45907267631237e-09
3.1833562339134064e-09
1.7768882318886447e-09
2.525175217958876e-09
4.6926847920322e-09
4.880934972591682e-09
3.02312625306753e-09
5.812022232557886e-10
4.665596306836597e-10
2.455990580740656e-09
4.852917204276806e-09
3.69431505077981e-09
5.974952485963107e-10
7.108389561072143e-10
6.182488969442877e-09
1.1948471454521875e-08
1.3099318112009904e-08
9.36946132555086e-09
4.166798315069843e-09
1.482464011774847e-09
4.217658764318778e-09
8.391961444063695e-09
9.548743175176115e-09
7.707851060800145e-09
5.654360406155302e-09
5.6309715871972675e-09
5.345048559702362e-09
5.5472796128779735e-09
7.604837653467102e-09
1.0459008493520764e-08
1.3800502720653713e-08
1.4456004857270894e-08
1.3706969942710699e-08
1.2187647594791738e-08
1.3240601572759559e-08
1.4807262549128716e-08
1.1758201335967836e-08
8.446185731138026e-09
7.464848454626249e-09
1.1563353430213683e-08
1.7257496207729337e-08
1.5686187397760034e-08
9.323468501132778e-09
9.209898243925873e-09
1.9497716158737332e-08
3.244965068378887e-08
3.43033864661053e-08
2.510553766400783e-08
2.0361694307881325e-08
2.928602373300978e-08
4.124920193325118e-08
3.923975064070142e-08
2.3443955811473733e-08
8.951239271870144e-09
1.0314889028377276e-08
2.4411712175591787e-08
3.264057533192509e-08
2.338565052241415e-08
7.651209834028373e-09
8.130608220699992e-09
2.642391102067024e-08
4.511504572378074e-08
4.56250149660357e-08
3.401133615974529e-08
2.7995217735000753e-08
3.6529742488098865e-08
4.595832985977049e-08
4.1805439569678163e-08
2.4530738804113247e-08
1.3451207157858267e-08
1.7701013440918284e-08
2.7132594896722982e-08
2.4476935589394774e-08
1.1042394966373418e-08
2.002037361130979e-09
8.736053400458652e-09
2.250685453107483e-08
2.7033942421118573e-08
2.2139299407086708e-08
1.7996844853131994e-08
2.520536520324811e-08
3.5272920080502457e-08
3.5037404713791006e-08
2.2153673885286566e-08
1.0972588746391442e-08
1.3555302115901856e-08
2.5137325871843323e-08
2.7832438480062624e-08
1.6295354407264712e-08
2.5392881161311664e-09
1.654712940608586e-09
1.0951112766563852e-08
1.8055299809301614e-08
1.5410557760014598e-08
1.178122224053725e-08
1.3819463706880368e-08
1.9595771982503673e-08
1.9545142698199484e-08
1.3608935424537541e-08
9.321495686014699e-09
1.4556320400447769e-08
2.3193208456174783e-08
2.3659224259506194e-08
1.2797189457739441e-08
2.3985761680961407e-09
1.0717257320800226e-09
7.2113561991031975e-09
1.2152233648588728e-08
1.1673253315590814e-08
1.0644204020682686e-08
1.1442838613499705e-08
1.2781859952122447e-08
1.0997146377425931e-08
8.333685050715139e-09
1.1344556177426052e-08
2.0489496312811926e-08
2.631503642355435e-08
2.166553339500254e-08
1.0595174660927498e-08
2.0408310425315424e-09
6.424235973140245e-10
2.580438671748512e-09
2.9416758096057085e-09
1.647675886097183e-09
2.3117540274815928e-09
4.428086897665762e-09
4.0037591674334195e-09
1.2221153854620854e-09
1.8702435940560235e-09
9.587588698361154e-09
2.0323264087780355e-08
2.5269437794017287e-08
1.9513484274588606e-08
8.076139643914033e-09
9.107282903567926e-10
6.622778047583497e-10
3.5912815874239394e-09
4.944756524210877e-09
3.4727950736778696e-09
1.0913602082038982e-09
1.9899532427121223e-10
1.2001431884602837e-10
7.448801281274797e-10
3.317980502551644e-09
7.755547554166476e-09
1.105225984459607e-08
9.447891639968273e-09
4.323615148916698e-09
3.306979830448251e-10
1.2008230657259748e-09
5.52717874222558e-09
8.462671967805731e-09
8.14460502020477e-09
5.141093985714723e-09
2.839587297146001e-09
1.7467163511404585e-09
9.004450086741815e-10
4.358230219581526e-10
1.9657182379861495e-09
5.352921252280507e-09
8.774350582072547e-09
9.134573640024315e-09
5.3924006936009415e-09
2.5407307034081177e-09
4.174584032911144e-09
9.47235295030206e-09
1.3149779549986774e-08
1.1614489899658667e-08
6.112500965044429e-09
1.5056691181531349e-09
4.4235608144807005e-10
1.4045971783130544e-09
1.2306740042834749e-09
1.4557432484743388e-10
6.010983949569348e-10
4.082570762945391e-09
8.783417524798363e-09
1.1048645967145718e-08
9.954705853885484e-09
7.898855361786326e-09
7.224273363275954e-09
7.90806211209813e-09
9.822433970658934e-09
1.0811780302566582e-08
9.540277965553672e-09
6.365503982287075e-09
3.0778320084041506e-09
1.4473275274108136e-09
9.9972347028794e-10
1.3625837029517094e-09
1.8882149326797276e-09
2.9538214986499987e-09
4.450083258572327e-09
4.963563400269737e-09
4.7657367811081865e-09
3.878753022962343e-09
2.041089575181684e-09
1.1212290249903199e-09
2.8468978651095204e-09
6.627867765372107e-09
1.0245500218647998e-08
1.1165141701101874e-08
8.891193279725656e-09
5.85482239600257e-09
3.633328615711186e-09
2.7398947258228755e-09
3.4873632718522924e-09
5.483924081929676e-09
7.532429046256064e-09
8.48376842405862e-09
8.061576088059559e-09
6.070074897498145e-09
3.463093347251209e-09
1.5560100112235378e-09
1.838049197485141e-09
4.880414588643527e-09
9.050210708976699e-09
1.1538437726384439e-08
1.0806599828938914e-08
7.347703991990779e-09
3.135663082248721e-09
9.046733706286429e-10
2.1385393289373612e-09
5.311581811367635e-09
8.305696788011778e-09
9.686972226329361e-09
8.205059786520184e-09
5.433351808939591e-09
2.8604500929288904e-09
9.750139329414893e-10
7.713229946391179e-10
2.0777816223425763e-09
4.842751113793349e-09
8.066184085484319e-09
9.698510281463897e-09
9.125640733305605e-09
5.653557170471334e-09
1.4759426551475098e-09
2.5391034250848995e-10
4.0458127061117e-09
2.605185010958066e-08
9.244158335259931e-08
1.4342150579840283e-07
1.5372870015738593e-07
1.1033209749473318e-07
5.3836736943253345e-08
1.8870206973699504e-08
4.368168603308232e-09
4.1640452764930635e-09
8.354296300140892e-09
1.612803445169518e-08
2.803116485801473e-08
3.920391499843755e-08
5.025703355854716e-08
6.79784309506162e-08
1.1122413311810884e-07
1.9695229835502806e-07
2.886970910710097e-07
3.224067421505557e-07
2.8925643254401693e-07
1.846018565710776e-07
7.02181037927152e-08
6.874836454510956e-09
9.48867624397337e-09
5.737792901289424e-08
1.0731450594399167e-07
1.2346619293232343e-07
1.0205302980094899e-07
5.524154207163713e-08
1.4536741380478283e-08
6.476208699868621e-10
1.408146502631992e-08
3.7002352524287417e-08
6.125220564853e-08
9.06226145434002e-08
1.514942960090024e-07
2.4818417761509325e-07
3.3369412393412736e-07
3.421009941960766e-07
2.4423419150853393e-07
9.85039602283644e-08
1.5592401403835045e-08
6.229784408229299e-08
1.897278896479699e-07
2.7131656333787546e-07
2.4049457278434067e-07
1.1709573789533493e-07
1.8036378538791068e-08
2.710940247911144e-08
1.2812153843274816e-07
2.2095181231054095e-07
2.2196858803962437e-07
1.311720000274836e-07
3.596933393946342e-08
1.7584074944126872e-08
7.345382315701487e-08
1.4258236150745324e-07
1.4777974946814612e-07
8.546850821872128e-08
1.677769484652463e-08
5.681979462500919e-09
4.8086808924084025e-08
8.976795733062661e-08
7.701564553773609e-08
4.488156400676304e-08
4.5015706366231433e-08
1.0700009508104033e-07
1.895873755190175e-07
2.346789262590169e-07
2.0602187226981536e-07
1.448389273365428e-07
8.245386016474079e-08
4.5599324719724115e-08
2.572111927253946e-08
2.1314335025621793e-08
1.9095783381072696e-08
2.205127895127857e-08
2.6405349070047258e-08
3.6693777716814624e-08
5.4898556237924876e-08
7.457731748918603e-08
8.665993277844074e-08
9.761075648178129e-08
1.0789152688945181e-07
1.0637871825031248e-07
8.606765451471262e-08
5.290249027387286e-08
1.8254981256193394e-08
6.3716112705506845e-09
9.52694319641014e-09
1.9374410973199256e-08
4.0053325587858364e-08
8.828001452353875e-08
1.4628578059077376e-07
1.859283352002427e-07
1.8273533125996914e-07
1.4664155932255723e-07
1.2027499158474076e-07
1.0502631224737511e-07
9.29852902299945e-08
8.008019919851258e-08
7.395519157207293e-08
7.051767036345349e-08
5.848773690376964e-08
3.48336555575786e-08
2.6257467054501678e-08
5.007080445708331e-08
8.544005656266282e-08
8.420377445426143e-08
4.672965705219288e-08
6.881979089978762e-09
3.843401431311817e-09
2.9150519459900284e-08
4.938481961164139e-08
4.648107674428226e-08
3.837653425836527e-08
3.075172277256119e-08
2.269949409785313e-08
8.85607293096942e-09
2.137493659009951e-27
1.9592918506280957e-28
1.6761836580480504e-29
1.1698239590431904e-30
1.728890923988977e-11
1.332974687984661e-10
5.711958945826428e-10
1.259812271670141e-09
1.8476095749217322e-09
1.696465023967438e-09
7.686087839690527e-10
2.461773783006263e-10
8.235750992132197e-10
1.8304015836860053e-09
2.1828240183920736e-09
1.5912079774363202e-09
1.1839176706227385e-09
2.072487778676164e-09
3.175462184747678e-09
3.390997460396917e-09
2.883035754998342e-09
2.0423645458312886e-09
1.1769397845602621e-09
8.755621816771123e-10
2.2618653347512434e-09
4.4467125149961585e-09
5.490781118353377e-09
4.170910198456607e-09
1.2698223137012782e-09
7.95300536795946e-11
7.484620635096436e-10
2.016064959294759e-09
2.7665957099142727e-09
2.126887855213955e-09
1.6349439715161175e-09
2.873970575163307e-09
5.327835134303795e-09
7.069379725487705e-09
1.0216824552361456e-08
1.688385307262799e-08
2.316578352380702e-08
2.2864153440417803e-08
1.519551294010143e-08
8.968518097215284e-09
1.0622259695350548e-08
1.823563246347743e-08
1.9311724951065675e-08
1.2942106730919666e-08
2.972286355134674e-09
1.4333188524237383e-09
8.583478227745517e-09
1.8043027303157473e-08
1.4318044293211261e-08
2.6791115118009324e-09
2.977752770863852e-09
2.4225273098530646e-08
4.688122878976756e-08
5.338088360983475e-08
3.956211626437028e-08
1.977486040742653e-08
9.093715172393494e-09
1.8956715450871036e-08
3.3854399792640255e-08
3.5849969456992784e-08
2.779938582240784e-08
2.11161069070976e-08
2.307691358705106e-08
2.3216329364811803e-08
2.3174625878169243e-08
3.0552316491908716e-08
4.312191821732208e-08
5.97519739003546e-08
6.350457926525688e-08
5.973687378198496e-08
5.406205929480015e-08
5.907551718776537e-08
6.73825688446339e-08
5.516806307886225e-08
3.7159506266321344e-08
2.9417993842645443e-08
4.363749903755539e-08
6.497637368393024e-08
6.012588196728045e-08
3.8277574908045065e-08
3.9760728117364204e-08
8.377404773507611e-08
1.3912291654489103e-07
1.4982682184076146e-07
1.1427300297096229e-07
9.365634601359895e-08
1.2824066461588548e-07
1.814001980900006e-07
1.8122568520173996e-07
1.143070252875663e-07
4.520002778010046e-08
4.098166235840884e-08
9.216003780376907e-08
1.2294684653044596e-07
8.738019561254614e-08
2.9832775727107995e-08
3.5356628089973895e-08
1.0947747274715428e-07
1.8548788338490527e-07
1.8720817854242275e-07
1.4325565927947442e-07
1.2517149547386337e-07
1.690638044723462e-07
2.1181119293189741e-07
1.9179270832305845e-07
1.1371609320188767e-07
6.278427186214623e-08
7.585889081701016e-08
1.1236583917269027e-07
1.0050475494147823e-07
4.405849542581596e-08
8.306073245406986e-09
3.9307452143894765e-08
9.871402455069024e-08
1.1790133470056988e-07
9.593662424853706e-08
8.21052700786575e-08
1.1820148844223624e-07
1.6431855529753094e-07
1.6499953588824697e-07
1.0890813341738152e-07
5.696496852264511e-08
5.864807601684495e-08
9.916320791524183e-08
1.071729158907686e-07
6.243713430211881e-08
9.788154982422408e-09
6.596581976750775e-09
4.281055255193197e-08
6.971293377722725e-08
6.072794208127546e-08
5.187738478352907e-08
6.926976936746316e-08
9.910618774004941e-08
1.0093349960811292e-07
7.151743538017639e-08
4.8115938332959254e-08
6.438843089284399e-08
9.780769448276776e-08
1.0020326314756062e-07
5.756815947187757e-08
1.2604769054699176e-08
2.603876834604063e-09
2.1828195617239994e-08
3.7585227201036644e-08
3.551444148602914e-08
3.510351688230694e-08
4.771266577338335e-08
6.055801837425501e-08
5.374559414144683e-08
3.960507578734261e-08
4.782686070598307e-08
8.526408475695336e-08
1.1267273399951348e-07
9.498255473814713e-08
4.7825041265807485e-08
1.1178939665600754e-08
4.10883657800068e-09
1.0138068000728031e-08
8.975503190500775e-09
2.8949032269133802e-09
6.044656368336831e-09
1.6692525763283607e-08
1.6776232743968617e-08
6.303244217588202e-09
7.813837138150029e-09
3.7569556070274925e-08
7.89951105113743e-08
9.684762238255154e-08
7.360350127082726e-08
3.0493393068716385e-08
3.816864774420974e-09
3.6518582097390852e-09
1.5203639582452316e-08
1.930500966592579e-08
1.2554499850926534e-08
3.4399841729750267e-09
4.534956441341763e-10
3.4005055812822727e-10
2.419973248993968e-09
1.2131249553974519e-08
2.9522937060533943e-08
4.2642083352270126e-08
3.713531479698158e-08
1.6902618288137087e-08
1.3588381839584763e-09
5.1206582368212e-09
2.1120757994323807e-08
3.117240098841706e-08
2.911020770414295e-08
1.672219194918777e-08
8.893453382425381e-09
6.461875153304028e-09
4.695013181143002e-09
2.642482672130859e-09
6.831566126259038e-09
1.8355249420570918e-08
2.9870941522186343e-08
2.9670597000173525e-08
1.5878691052002314e-08
7.234528088648229e-09
1.575616217282617e-08
3.685158053324895e-08
4.976727973641187e-08
4.1120696921053956e-08
1.9439707331464645e-08
4.075345334499992e-09
3.1862354500967687e-09
8.879251747513122e-09
7.98453582173408e-09
1.6327675275681309e-09
1.1330867918710487e-09
1.2777116868395252e-08
2.9275278558864786e-08
3.717625054564024e-08
3.4862559416558264e-08
2.855505664581853e-08
2.639274351401181e-08
2.738466610652082e-08
3.136761268980495e-08
3.281954777426556e-08
2.7715616849612243e-08
1.8170474354603798e-08
8.703034073859527e-09
4.517658483174375e-09
3.2896442569532417e-09
4.022151312179442e-09
5.0842299407112315e-09
7.636969883695163e-09
1.1967861050182894e-08
1.4085287613537382e-08
1.426409035054967e-08
1.175950563282569e-08
5.802963615626449e-09
3.212338470579585e-09
8.94640319666377e-09
2.1333946688946477e-08
3.312695724405174e-08
3.60515914020617e-08
2.8142035236383337e-08
1.8076503366255108e-08
1.1288461805289224e-08
8.222973310820273e-09
1.0125291486228614e-08
1.563025846467483e-08
2.1687145068106456e-08
2.5369876631127076e-08
2.496434049724553e-08
1.9751299864191087e-08
1.1731447506784103e-08
5.226148464840174e-09
5.678568983571268e-09
1.534409387872846e-08
2.8810139999787242e-08
3.6459049719820386e-08
3.4093966108967344e-08
2.275153399610813e-08
9.563216567169068e-09
2.477485311511477e-09
6.5747876081180244e-09
1.6723903210609842e-08
2.596857434343939e-08
2.8842202179283168e-08
2.3134890647831093e-08
1.5321153553395895e-08
7.972706228367701e-09
2.713955327607806e-09
2.0382227681569644e-09
5.640580009794359e-09
1.3352788089292452e-08
2.3983081857664398e-08
2.983590474723116e-08
2.757362959971452e-08
1.7334791479734605e-08
4.627527553222114e-09
7.274732130784336e-10
6.409698383138336e-09
4.2040135857345154e-08
1.4361499262480528e-07
2.1656909070901117e-07
2.1829993983161015e-07
1.4297240116914225e-07
5.6821488202673596e-08
1.246672168614469e-08
3.9021688795060106e-09
6.625440415165504e-09
8.853720368723849e-09
1.3852818633347889e-08
3.0090551768923646e-08
4.394602361556273e-08
4.909673533409814e-08
5.679259314406159e-08
1.114264444467769e-07
2.43612968438922e-07
4.007402190408295e-07
4.644439028042507e-07
4.181462851162089e-07
2.5599983476740745e-07
8.425987922355006e-08
4.451442204922067e-09
2.8267968513571374e-08
1.0681664388465338e-07
1.797627401158763e-07
1.9279216413200062e-07
1.5375695881336066e-07
8.087616823458894e-08
2.091141692815143e-08
3.1259212580489466e-09
3.1925277926294865e-08
7.935319533029468e-08
1.2223140559138106e-07
1.577019138988389e-07
2.2775272193120442e-07
3.5523131742768123e-07
4.859586975081696e-07
5.179229964671598e-07
3.850919582181324e-07
1.694489581124449e-07
4.7853726245251546e-08
1.248770269525976e-07
3.3206909406735916e-07
4.618437895570162e-07
4.087302313180571e-07
2.0034084682982804e-07
4.2115411865179476e-08
6.284565188818178e-08
2.329790769406864e-07
3.819415627969289e-07
3.759710846662718e-07
2.1906774931525712e-07
6.645904481258365e-08
4.3986336820531975e-08
1.4217736953824953e-07
2.615992099574579e-07
2.5585672635822484e-07
1.4382683468199076e-07
2.2229999582420454e-08
1.067086885404739e-08
9.771317274198155e-08
1.7605123885879944e-07
1.5160613531099807e-07
8.766240884211732e-08
7.784737297922086e-08
1.6897489423353763e-07
2.8829651701956283e-07
3.373219154593004e-07
2.679186150103638e-07
1.652606688278006e-07
7.867262763114803e-08
3.549384792241138e-08
1.750357256524927e-08
1.797440517514782e-08
2.3476720741479314e-08
3.194336694482492e-08
3.5981095522641606e-08
5.0234422737883495e-08
8.144446824377844e-08
1.1994292230335586e-07
1.4546859174801383e-07
1.6330916053785107e-07
1.7866257457638634e-07
1.7539402538449308e-07
1.3701964082394369e-07
7.825501616284964e-08
2.0389694227489426e-08
5.1027813453652715e-09
1.0006904516995469e-08
1.4918235752257693e-08
3.074754766563776e-08
1.004825836758265e-07
1.969314905221274e-07
2.6292470499273346e-07
2.531972464589704e-07
1.9559941855468168e-07
1.6808283175641766e-07
1.6777106381758438e-07
1.5415947562862391e-07
1.2434939376584785e-07
1.033789145269127e-07
9.638038447840815e-08
7.552558536657294e-08
3.4860175269271015e-08
1.5745649484899725e-08
6.46138368462239e-08
1.367417673349245e-07
1.4110892489222585e-07
7.654582018496585e-08
9.239102447151315e-09
1.196220190253403e-08
6.068364173398156e-08
8.769524771018596e-08
6.924973871158678e-08
4.974031871697135e-08
4.3320084650455493e-08
4.0580407242217393e-08
1.771082144046486e-08
3.923826530417188e-27
3.6106578724816168e-28
3.601606912669421e-29
7.332921178931044e-32
1.6316117650187193e-11
1.0155158385933043e-10
7.108632115028676e-10
1.986297898495863e-09
3.135780967885784e-09
2.9354901784768984e-09