# vtk DataFile Version 4.1 
COMMENT
ASCII
DATASET STRUCTURED_POINTS 
DIMENSIONS 400 400 1 
ORIGIN 0 0 0
SPACING 0.002506265664160401 0.002506265664160401 0 
POINT_DATA 160000
SCALARS U double 1
LOOKUP_TABLE default
4.565262294756818e-07
2.0986743490187456e-10
4.0659987833381527e-10
2.047015457413588e-10
2.275735406451935e-10
3.912868634188622e-10
7.38318386576692e-10
1.0304533882606736e-09
9.718440379936218e-10
3.8612551913176516e-10
4.396104116629589e-10
6.423217687962006e-10
4.878207737510487e-10
1.0881870133569525e-09
8.700862344886758e-10
1.497431031937452e-09
6.29502693728137e-10
3.8974923052000384e-10
6.229371682515761e-10
1.356034481914886e-09
2.9839707715842584e-09
1.9533347469696633e-09
2.3721467588012196e-09
9.544734091423138e-10
1.075235564844632e-09
5.855846985401936e-10
3.626947605677703e-09
6.10783570301097e-09
9.042177225778809e-09
6.985309711940413e-09
7.450239124910712e-09
3.248335204890649e-09
4.0194289007481366e-09
6.315338472101213e-09
1.3181395191012629e-08
1.725774273206945e-08
2.4432691658774556e-08
1.8792594463191266e-08
1.7661573329682497e-08
1.1903342832652737e-08
2.39431291186229e-08
3.452920068403888e-08
6.344404821453911e-08
6.887019126414009e-08
7.64097228034409e-08
5.6362795088605586e-08
5.734352575241096e-08
7.469581161866693e-08
1.2503784728339683e-07
1.803679090634515e-07
1.9482349365260165e-07
2.00779401230965e-07
1.5938597635153028e-07
1.8669227900987177e-07
2.352417903639613e-07
3.597463116495953e-07
4.421448900103811e-07
4.623384303668937e-07
4.433407828967392e-07
3.7334208891190745e-07
4.629638303430005e-07
6.025870374278313e-07
8.269958853302393e-07
9.071001404242629e-07
7.880026535993633e-07
7.118742906844013e-07
7.064712123185801e-07
1.0187301870843787e-06
1.328597966680878e-06
1.4451177353599024e-06
1.3527427507162456e-06
1.0606390601453035e-06
1.1718626095731505e-06
1.6207271646422374e-06
2.177299470131729e-06
2.4132220945009378e-06
1.946009931071081e-06
1.6216605830110982e-06
1.9130111786067588e-06
2.840484380742781e-06
3.796185085388133e-06
3.5643351257145546e-06
2.6307857228914035e-06
2.1710217358984968e-06
2.9435049814757573e-06
4.782989854508109e-06
5.468579723857425e-06
4.134026797502565e-06
2.4978851671660578e-06
2.486986504749887e-06
4.89456953487668e-06
7.273188816914901e-06
6.3518212998410124e-06
3.2483880013129165e-06
1.8637291969203312e-06
4.528127082173693e-06
9.194668491484574e-06
9.947285684390988e-06
5.334588085482273e-06
1.356850844157254e-06
3.5709113938553814e-06
1.0262162111322253e-05
1.3702788968103887e-05
8.694318599747853e-06
1.33062748783925e-06
2.129685733286251e-06
1.091881152941136e-05
1.6798157472199327e-05
1.2191664359965159e-05
2.602675239109814e-06
9.296730460667805e-07
1.0812994193904195e-05
1.9787986816653636e-05
1.5880273408664202e-05
4.466255020387824e-06
2.862761540551515e-07
8.101137897534104e-06
1.804801274247305e-05
1.8009647886678788e-05
8.018719361808287e-06
2.5248631718551756e-24
2.3020182474756536e-25
2.0131721081483916e-26
1.8896869002336735e-27
5.983330804758481e-10
5.908076629188333e-10
5.409888620880719e-10
5.167247862247838e-10
4.967993136941963e-10
6.11729613231534e-10
7.884627334858373e-10
9.451540295251145e-10
1.2174325262170418e-09
1.2517405464096799e-09
1.2550569771026361e-09
1.1811753833309959e-09
8.35327566540913e-10
6.548998406051855e-10
4.198474199393619e-10
2.357331593121796e-10
3.068422699178009e-10
5.27076313723603e-10
7.116532047290532e-10
1.1566189804186776e-09
1.5994892732282077e-09
1.6822501063235589e-09
2.036156689358794e-09
2.0629196517741585e-09
1.7078648812231908e-09
1.6681342626727898e-09
1.2690407404561926e-09
7.431496280393481e-10
5.56571328452878e-10
2.596391672586317e-10
3.872563512851884e-11
1.6396283652099053e-11
1.4225600452197666e-10
4.0093569358933287e-10
4.964637858535231e-10
8.028443927048183e-10
1.3528004244841589e-09
1.3850416991148368e-09
1.3905461735634345e-09
1.8619101350061051e-09
1.8607600591722254e-09
1.4443852938238507e-09
1.5141241598322627e-09
1.5659703431454661e-09
1.1013973562925804e-09
8.159744602865156e-10
8.411627265022096e-10
6.236747003124028e-10
3.1176469217135446e-10
2.6540529689554134e-10
2.5746663969210504e-10
1.1061270394182572e-10
3.13273240240396e-11
7.019230085497052e-11
5.6510008404088947e-11
1.011711640485631e-11
6.786744204156963e-11
1.4344800459266642e-10
1.1852131989614727e-10
1.728625671966045e-10
4.2810601201685446e-10
5.889541490685945e-10
5.245694075253227e-10
6.780669684193586e-10
1.223227427359551e-09
1.5697800584144532e-09
1.4398149347248696e-09
1.474967204370938e-09
2.007484625769621e-09
2.3384291533679758e-09
2.0371368393408833e-09
1.7898941784309659e-09
2.1284716134251714e-09
2.45016131764115e-09
2.147900100854119e-09
1.6823739061378696e-09
1.676546939599834e-09
1.8183428890924243e-09
1.5046899009582253e-09
8.966589886842171e-10
5.490838233057841e-10
4.87827312139023e-10
3.5466969007370406e-10
1.1623321125637316e-10
1.594811718082521e-11
7.034166697308151e-11
1.568327884214139e-10
4.2449056855537787e-10
1.0979298306221763e-09
1.962579281496862e-09
2.554207560356892e-09
2.886175574960584e-09
3.5003228725878403e-09
4.613973457132727e-09
5.614142335568975e-09
5.72299812333686e-09
4.945808476230235e-09
3.9999930290834136e-09
3.3747720924862852e-09
2.8311399453804496e-09
1.9418264185742623e-09
8.298268217281481e-10
9.591662131304936e-11
1.0625500447197397e-10
6.341425846125382e-10
1.2855286531363465e-09
2.0679121332122653e-09
3.30920540735613e-09
5.012581257186774e-09
6.476833254345279e-09
6.727172198735322e-09
5.3804645997752344e-09
3.08065321376965e-09
1.070813330758773e-09
2.943316017543447e-10
7.97745567953605e-10
1.8592983980017185e-09
2.622327884321642e-09
2.6731282858253178e-09
2.174562467097646e-09
1.5860240820604596e-09
1.2800185219989094e-09
1.3399583501958938e-09
1.6083375995577976e-09
1.8656078109609168e-09
1.979400028100718e-09
1.9439536920734624e-09
1.8302775983677393e-09
1.7141465288422319e-09
1.6337752084530135e-09
1.588218694698374e-09
1.5582932173389416e-09
1.5271192938616457e-09
1.4886966441300391e-09
1.445657057642118e-09
1.403076101470318e-09
1.3639936890779331e-09
1.3283721591546706e-09
1.2943301470005946e-09
1.2597980645411285e-09
1.2234840834090094e-09
1.1850126049251893e-09
1.1446143014971224e-09
1.10276626351436e-09
1.0599726427012393e-09
1.0166881554704355e-09
9.733121374056368e-10
9.301932655280406e-10
8.876240692345217e-10
8.458306064823889e-10
8.049682168089797e-10
7.651281765864521e-10
7.263529313795392e-10
6.886543992953777e-10
6.520305100709479e-10
6.1647740832905e-10
5.819967173832701e-10
5.485983868649089e-10
5.16300245194162e-10
4.851256285655095e-10
4.551002263464073e-10
4.2624876320224617e-10
3.985919141844086e-10
3.7214398191294224e-10
3.4691171461226274e-10
3.2289406146251364e-10
3.0008240332598835e-10
2.784611467965162e-10
2.5800874985003266e-10
2.386989180045267e-10
2.2050161233640263e-10
2.0338388847881137e-10
1.8731068583923235e-10
1.7224541534969554e-10
1.581502824253439e-10
1.4498658618710788e-10
1.327150647229111e-10
1.2129609823586033e-10
1.1068981723146508e-10
1.0085630933774805e-10
9.175583661419173e-11
8.334895933645945e-11
7.559671664004385e-11
6.846087509693986e-11
6.1904072247272e-11
5.588991457832692e-11
5.038314230303628e-11
4.53497394029738e-11
4.075697037324219e-11
3.657347382008729e-11
3.276934098570438e-11
2.9316104608614784e-11
2.6186754989979857e-11
2.3355768859496757e-11
2.0799065304587778e-11
1.8493980774400324e-11
1.6419275539059648e-11
1.4555081012067366e-11
1.2882852527623495e-11
1.1385351661239354e-11
1.0046578772005401e-11
8.851709523796802e-12
7.78706210146703e-12
6.840026909652499e-12
5.999004399729855e-12
5.253368033195245e-12
4.593394304562178e-12
4.010203769235408e-12
3.4957188661679876e-12
3.042594960181788e-12
2.644168958166586e-12
2.2944172723934354e-12
1.9878950749551457e-12
1.7196967252188904e-12
1.4854156137636986e-12
1.2810936684280016e-12
1.1031905138842613e-12
9.485441481212215e-13
8.143318380997396e-13
6.980449855308136e-13
5.974534542036285e-13
5.105791340129206e-13
4.3567402048602734e-13
3.7119184119993915e-13
3.1577136291387425e-13
2.6821571156784034e-13
2.274731425634442e-13
1.926244611543494e-13
1.6286482847301356e-13
1.3749251042969255e-13
1.1589665538025526e-13
9.754483197765298e-14
8.197568725462618e-14
6.878813972552698e-14
5.763526057326333e-14
4.821747791976652e-14
4.02761858863306e-14
3.3590016728908886e-14
2.796890163811807e-14
2.3251091443647337e-14
1.929858578541676e-14
1.5993735669493546e-14
1.3236278528619806e-14
1.0939989758449226e-14
9.031123193491494e-15
7.446035804462824e-15
6.130560535748166e-15
5.038773291763651e-15
4.132535216107687e-15
3.3807107497875293e-15
2.7581887480323547e-15
2.2448938168718626e-15
1.824297726136325e-15
1.482382266524887e-15
1.206417265910826e-15
9.845759066015727e-16
8.056816383849736e-16
6.597013760398153e-16
5.382084343944214e-16
4.350186447573218e-16
3.4635661461306125e-16
2.706939333695791e-16
2.0801750870273304e-16
1.5887135311225236e-16
1.2330575644833726e-16
1.0015048054531048e-16
8.675145117315399e-17
7.932322567038228e-17
7.37389294950681e-17
6.655305091859131e-17
5.586307257063389e-17
4.176153991237476e-17
2.6174054019817305e-17
1.2152991046948318e-17
2.8190385333433365e-18
2.5807720288615023e-31
2.3560449185274683e-10
1.3248705739826764e-09
2.5668213576883837e-09
1.2922588705975205e-09
1.4366473176690752e-09
2.470151939351685e-09
4.660924669247426e-09
6.5051415556950606e-09
6.135147022882636e-09
2.4375689272642414e-09
2.7752133088250876e-09
4.0549083325122805e-09
3.079560146253316e-09
6.86960772956892e-09
5.492760939496961e-09
9.453121260618805e-09
3.973982888546699e-09
2.460445028023411e-09
3.9325354314379e-09
8.560500028195794e-09
1.8837486962876367e-08
1.2331192443496571e-08
1.497510768821068e-08
6.0254881087808236e-09
6.787846626268414e-09
3.6967333023018196e-09
2.2896530652247423e-08
3.855811073034537e-08
5.7082293576284866e-08
4.40975098963417e-08
4.703255934082262e-08
2.0506391234084537e-08
2.5374222910317645e-08
3.986805342305578e-08
8.32127319837624e-08
1.0894627615653003e-07
1.5424095804590817e-07
1.1863563027161909e-07
1.114956153424858e-07
7.51445247252524e-08
1.5115040231545662e-07
2.1797913502309172e-07
4.005154616440698e-07
4.347701198762924e-07
4.823663726379671e-07
3.558122712807877e-07
3.620035186178782e-07
4.7154663542533816e-07
7.893504991728115e-07
1.1386432360060058e-06
1.2298997887953272e-06
1.2674987935938723e-06
1.0061865485341914e-06
1.1785683041563371e-06
1.4850561544716815e-06
2.2710398239069195e-06
2.7912131983956917e-06
2.9186928496116335e-06
2.7987627417324726e-06
2.3568685053966514e-06
2.922640932484522e-06
3.804067241422219e-06
5.220736193736168e-06
5.7264257518826946e-06
4.9745761102106805e-06
4.493985932326888e-06
4.459876878965915e-06
6.431134245896785e-06
8.387296254570027e-06
9.122873038468335e-06
8.539719682714474e-06
6.695700459960226e-06
7.397842780610218e-06
1.023147650274015e-05
1.3745057684029636e-05
1.523441187044582e-05
1.228495166751143e-05
1.0237369072641218e-05
1.2076634087708925e-05
1.7931672789840256e-05
2.3964908683303908e-05
2.2501264791652895e-05
1.6607867687248466e-05
1.3705427022127368e-05
1.858203077648528e-05
3.0194501194805773e-05
3.4522556398540596e-05
2.609766712319057e-05
1.576888075424106e-05
1.570007866906903e-05
3.089889173183137e-05
4.5914859764002174e-05
4.0098365595836355e-05
2.0506724532227278e-05
1.1765522230862583e-05
2.8585579888708946e-05
5.8044954557095905e-05
6.279614605482097e-05
3.367668157796174e-05
8.565653635343703e-06
2.25427800660473e-05
6.478392711612325e-05
8.650423489391551e-05
5.488629943479293e-05
8.400108403645272e-06
1.3444477277672535e-05
6.892928435964166e-05
0.0001060449637765374
7.696466755761023e-05
1.6430409222575e-05
5.868926080573718e-06
6.826127088677367e-05
0.00012491943528065373
0.0001002504602763926
2.819498820853684e-05
1.807230610684964e-06
5.1141613377211724e-05
0.00011393516584670156
0.00011369297263296803
5.0621314014021215e-05
1.5939190000047063e-23
1.4532393928946915e-24
1.2708939277289705e-25
1.1929390423677252e-26
3.777212468115887e-09
3.7297053154083545e-09
3.415204576965346e-09
3.262028072324764e-09
3.13624070449984e-09
3.861783340436797e-09
4.977480545115294e-09
5.9666558662827245e-09
7.685520769568165e-09
7.90210361590677e-09
7.923039886642648e-09
7.456633321027769e-09
5.273333202285815e-09
4.134312348790257e-09
2.6504516648820957e-09
1.4881581138622254e-09
1.9370622910515827e-09
3.327376153533125e-09
4.492590240438348e-09
7.301611387126473e-09
1.0097403975475287e-08
1.0619864225192396e-08
1.2854038469621356e-08
1.3022990176651552e-08
1.078156754776638e-08
1.0530752420454376e-08
8.011317882651543e-09
4.691423777661607e-09
3.513575013362298e-09
1.6390741742050752e-09
2.4447077491823937e-10
1.0350797751683584e-10
8.980468763609496e-10
2.5310639678052184e-09
3.1341225532818216e-09
5.068270414983305e-09
8.540083771016385e-09
8.743619474618284e-09
8.778368630558538e-09
1.1754038688389507e-08
1.1746778383183666e-08
9.118249213725199e-09
9.558503183954862e-09
9.885802570241691e-09
6.953003205555065e-09
5.15115912128273e-09
5.310169940347715e-09
3.937191392117149e-09
1.968137014004669e-09
1.675475131243898e-09
1.6253592410359389e-09
6.982861187096611e-10
1.9776603159264086e-10
4.4311645571105634e-10
3.567416131287668e-10
6.386826915104114e-11
4.284398717428039e-10
9.055718447705581e-10
7.482123617387886e-10
1.0912628189741062e-09
2.7025872695847122e-09
3.718004281563828e-09
3.311550323978439e-09
4.280563938223579e-09
7.722103358031396e-09
9.90985289352073e-09
9.089397027650661e-09
9.311309530105155e-09
1.2673034811943752e-08
1.4762252066829746e-08
1.2860226051177147e-08
1.1299409690001903e-08
1.3436812669402154e-08
1.546760521836628e-08
1.3559462623663235e-08
1.0620645760122398e-08
1.0583860746261456e-08
1.1479003344637914e-08
9.498945721047902e-09
5.660511882466307e-09
3.4663071976263007e-09
3.079601422394287e-09
2.2389916571949738e-09
7.337677776691847e-10
1.0067875072272179e-10
4.4405938797078413e-10
9.900685473776969e-10
2.6797633633591084e-09
6.931113088456168e-09
1.2389552196980854e-08
1.6124437972680914e-08
1.8220116391095484e-08
2.209716231343103e-08
2.9127518832783272e-08
3.544147753091574e-08
3.6128672426535484e-08
3.122235766485279e-08
2.525152634016928e-08
2.1304573724472985e-08
1.7872682373114465e-08
1.2258541602483883e-08
5.23860759113596e-09
6.055113276288661e-10
6.707764300313492e-10
4.003274021313952e-09
8.115404304380313e-09
1.3054507175711436e-08
2.0890658283980066e-08
3.1643887058746945e-08
4.088755263667572e-08
4.2467915502879e-08
3.396629508494562e-08
1.944783283541298e-08
6.759929537491124e-09
1.8580837867477845e-09
5.036082082010465e-09
1.17375510732161e-08
1.6554474260841883e-08
1.687517173889603e-08
1.3727779277865992e-08
1.0012399669973852e-08
8.08061943837102e-09
8.459013135444084e-09
1.0153262509166097e-08
1.1777381719512677e-08
1.2495739763519167e-08
1.2271970851586877e-08
1.1554345882346521e-08
1.0821222914452911e-08
1.0313847401784187e-08
1.0026254023826431e-08
9.837337699650482e-09
9.64054006923218e-09
9.397982008579989e-09
9.126277722105572e-09
8.857468719553837e-09
8.610745648091436e-09
8.385870755911806e-09
8.170967189747848e-09
7.952969862386027e-09
7.723723600103356e-09
7.480857288783294e-09
7.225827138556822e-09
6.961644969807324e-09
6.691493438217945e-09
6.418243119659309e-09
6.144414976777294e-09
5.8722101701541675e-09
5.603475406450855e-09
5.339637765270216e-09
5.081677888425931e-09
4.830171993851136e-09
4.585388035836778e-09
4.347401252113043e-09
4.116198573331865e-09
3.891755660911096e-09
3.6740827626550426e-09
3.4632426895173814e-09
3.2593479903998e-09
3.0625459841914344e-09
2.8729988451096523e-09
2.690862657311306e-09
2.516267940175001e-09
2.3493049846048057e-09
2.190016391416607e-09
2.0383955268975214e-09
1.8943879793570207e-09
1.7578953092968842e-09
1.6287815242330968e-09
1.506880629925098e-09
1.3920029938748054e-09
1.283940641832968e-09
1.1824722400449744e-09
1.0873668056548841e-09
9.983857455081338e-10
9.152847451121471e-10
8.378159482332375e-10
7.657292393493106e-10
6.98772926624162e-10
6.366950475406182e-10
5.792447407485754e-10
5.261730275046469e-10
4.772339520561129e-10
4.32186150878756e-10
3.9079375877660634e-10
3.5282702741305267e-10
3.1806336553970193e-10
2.8628803368600197e-10
2.5729437612576453e-10
2.3088441174885038e-10
2.0686932977983628e-10
1.850694194547699e-10
1.653141714460838e-10
1.4744246008989453e-10
1.313022651717093e-10
1.1675051412936237e-10
1.036531228295837e-10
9.188466301995958e-11
8.132806421723818e-11
7.18745020992586e-11
6.342297265153299e-11
5.587989143243606e-11
4.9158886612556665e-11
4.3180355170802694e-11
3.787107040266065e-11
3.316394811198725e-11
2.899760485308e-11
2.5315985645979576e-11
2.2068097715434006e-11
1.920757516847526e-11
1.669235461400329e-11
1.4484409789698652e-11
1.254936808183019e-11
1.0856260708013873e-11
9.377269216303563e-12
8.087406722292855e-12
6.964323216822382e-12
5.988057320836137e-12
5.140789423857075e-12
4.406683014343533e-12
3.771659481942921e-12
3.2232312300360316e-12
2.750363294145868e-12
2.34329422255619e-12
1.993430696032488e-12
1.6932169771942194e-12
1.4360135153630812e-12
1.216017532839189e-12
1.0281481683021429e-12
8.679754498189601e-13
7.316431365738285e-13
6.157900466630352e-13
5.175037083597139e-13
4.342521373264541e-13
3.638452092057205e-13
3.0439175890926903e-13
2.54259235302538e-13
2.120501675952e-13
1.7656467180953533e-13
1.4678164280738344e-13
1.2182989913863305e-13
1.0096673534165282e-13
8.35592045988763e-14
6.90629802447343e-14
5.701251065780506e-14
4.7006024230327634e-14
3.87015701584661e-14
3.180923455965801e-14
2.6088250930060376e-14
2.1342063830124987e-14
1.741214930018447e-14
1.4171773534468546e-14
1.1516595591267389e-14
9.358120021006776e-15
7.615982614440439e-15
6.2155219418326644e-15
5.0861816422042184e-15
4.1646239262403295e-15
3.3976520355902316e-15
2.7462259775666165e-15
2.1865121047467675e-15
1.7088617252346252e-15
1.313192188594166e-15
1.0029377873020076e-15
7.784159957806656e-16
6.322392261893566e-16
5.476525929968376e-16
5.007590032880227e-16
4.655059413609214e-16
4.2014226176652403e-16
3.52657576701675e-16
2.636361157221833e-16
1.6523399158570074e-16
7.672052708656291e-17
1.7796287458776718e-17
1.819718762614725e-18
8.421584613536791e-10
4.7979784848263965e-09
9.35930160952485e-09
5.455539667247076e-09
6.87715430981489e-09
1.1115156111691545e-08
1.7558952319164483e-08
2.701241945873649e-08
2.797532788060928e-08
1.1066546797476793e-08
1.0566151428229787e-08
1.7093605688680066e-08
1.447167127441383e-08
2.9453519399080178e-08
2.093216225126291e-08
3.568247809095092e-08
1.5385629188922755e-08
1.1946518305116802e-08
1.6002925001349952e-08
3.2933217803434164e-08
8.084913891985562e-08
5.300638276095604e-08
6.45039793787249e-08
2.4038845956588107e-08
2.7631446761291376e-08
1.3782347722872322e-08
7.94993427557302e-08
1.4277946253722206e-07
2.156251891999038e-07
1.7276847848098532e-07
1.810847976710714e-07
8.319381417164306e-08
1.0069448676546717e-07
1.6710754666568739e-07
3.377621433774092e-07
4.488371222609118e-07
6.168070469832788e-07
4.86420421727096e-07
4.6461455601574283e-07
3.0129374767882063e-07
5.806869923685183e-07
8.366403782370429e-07
1.5461843712218234e-06
1.6664892373372342e-06
1.8988080605787469e-06
1.3895334998494034e-06
1.4429438571443517e-06
1.8294063891536566e-06
3.1208392063976154e-06
4.4661076359118345e-06
4.888386560474755e-06
5.036908727016737e-06
3.993335255505196e-06
4.674791674833186e-06
5.772423427581979e-06
8.902293139030638e-06
1.086222780058417e-05
1.1458513546734752e-05
1.0994499691884274e-05
9.285074264902669e-06
1.1529539725867978e-05
1.4887049112289654e-05
2.0602918117850525e-05
2.2528458240249506e-05
1.9809242801387136e-05
1.7965853462389948e-05
1.7707585465079186e-05
2.5552376735967843e-05
3.3040838886279515e-05
3.623996278241261e-05
3.400449396134372e-05
2.6659268500641842e-05
2.956503808441982e-05
4.0407669326598155e-05
5.451481500063055e-05
6.0469363587548246e-05
4.8660652339030956e-05
4.069085006268181e-05
4.7274089359225445e-05
7.026577027712291e-05
9.420448997979112e-05
8.837470345182875e-05
6.568273685556291e-05
5.3912781314317445e-05
7.284302486697902e-05
0.0001189438143094515
0.00013603166048913268
0.00010321452838471378
6.270186394943647e-05
6.17552719562039e-05
0.00012222947039592242
0.00018219065540694287
0.00015948375338568544
8.236931515384772e-05
4.646814969749903e-05
0.00011180156992217148
0.000228586045578926
0.00024788311411825576
0.0001329341737600489
3.368643475166798e-05
8.800226998511975e-05
0.00025558923429812856
0.00034328978009693257
0.00021826620940478157
3.341080997445414e-05
5.290488152401363e-05
0.00027217413587676305
0.00041995226245630313
0.0003061469849615098
6.57997777539463e-05
2.2959175985990278e-05
0.00027008387593622206
0.0004936647983715042
0.00039506372492014265
0.00011066973516373324
7.194638508052459e-06
0.00020199561459559602
0.0004504547792697867
0.0004505538167496996
0.00020091063263197694
4.754097838663694e-23
4.334468454421522e-24
3.792929185954151e-25
3.5409774762566916e-26
1.476784049047247e-08
1.4794545752218645e-08
1.3967462819988233e-08
1.3835584544463865e-08
1.3651831941719494e-08
1.608100094176623e-08
1.961757639148712e-08
2.2450972570616184e-08
2.7516965445484104e-08
2.791263646271086e-08
2.7567039210931632e-08
2.6134754910502605e-08
1.9396557746397756e-08
1.60163351152906e-08
1.203326039870909e-08
8.432180471421428e-09
1.0411469207104883e-08
1.4708786917944032e-08
1.7936141617825694e-08
2.6952380047934757e-08
3.479258429016457e-08
3.59958276593921e-08
4.306627153371391e-08
4.2963146285566834e-08
3.5775148522904476e-08
3.5309397203286795e-08
2.7461173350884814e-08
1.6671324512542222e-08
1.3192857837933215e-08
7.620899334470664e-09
2.3201335074992676e-09
1.6159116384451893e-09
4.50089274074687e-09
8.677305468952929e-09
1.0142936172697105e-08
1.7001432432258373e-08
2.772098209892742e-08
2.8142111257262862e-08
2.9451886352140996e-08
3.9728451979037836e-08
3.964285591225809e-08
3.205108429597366e-08
3.495465703181196e-08
3.6261750305375525e-08
2.6200412572630372e-08
2.095144209313769e-08
2.2288903027564766e-08
1.6711854785151732e-08
8.97633729897668e-09
8.37298295214892e-09
7.939989186336798e-09
3.349048703778519e-09
1.5860701771478296e-09
3.075885671015369e-09
2.1135088106951514e-09
1.2164059878851253e-09
4.328821068747838e-09
6.477240389681732e-09
5.435470183708061e-09
8.370627395809309e-09
1.580052602352622e-08
1.8060471175663293e-08
1.5643965180435805e-08
2.048720098036844e-08
3.1544434478918854e-08
3.451971527554465e-08
2.9573902067143427e-08
3.1836652772349064e-08
4.166731531932439e-08
4.2892170996883054e-08
3.342730496470438e-08
2.9538422325231894e-08
3.590709467873465e-08
3.786420387363566e-08
2.851395405370406e-08
1.9996202625431517e-08
2.113050649721333e-08
2.3634348560234295e-08
1.8249773116973862e-08
9.1480204306186e-09
4.644937590896486e-09
5.031389503862814e-09
6.272114317929024e-09
7.218168399278943e-09
7.896150268144138e-09
7.776935862422676e-09
1.0029057690977835e-08
2.0546054494548807e-08
3.794884142475212e-08
5.11033232363378e-08
5.3017077871528484e-08
5.2299078088649074e-08
6.270137079072513e-08
8.303620447997127e-08
9.584268740665511e-08
8.787757835201425e-08
6.544967449614909e-08
4.548527179261735e-08
3.594154606167712e-08
3.0813572075167e-08
2.281435552022188e-08
1.422580093932974e-08
1.2453946111917571e-08
1.907294589166646e-08
2.8351801675819187e-08
3.635979091838529e-08
4.703475217939425e-08
6.614363693224489e-08
9.038137963020071e-08
1.0567647977264529e-07
9.836054379936009e-08
6.829847063491269e-08
3.0767039298692255e-08
5.215840602717166e-09
1.2535286869823956e-09
1.3540209664719703e-08
2.8236067794052728e-08
3.404137298911056e-08
2.8846295045562922e-08
1.8429704765358813e-08
1.032139865521181e-08
8.42897257093292e-09
1.1748152740194396e-08
1.6615833050435215e-08
1.9807013931299005e-08
2.0216531227346086e-08
1.863490897939248e-08
1.6521003947217778e-08
1.4922071050511194e-08
1.4109709817189265e-08
1.3817988250882988e-08
1.3664015955718392e-08
1.3421592165333822e-08
1.3064268279479904e-08
1.2670376682628988e-08
1.2316268680651257e-08
1.202603847900202e-08
1.177771872957729e-08
1.1533280501603167e-08
1.1263337840476669e-08
1.0955865557745607e-08
1.0612769741591647e-08
1.0242552778964283e-08
9.85470635828045e-09
9.457285431319472e-09
9.056615816587143e-09
8.657678426398816e-09
8.26436706768993e-09
7.879509366265857e-09
7.504842940265357e-09
7.141111261278232e-09
6.788304092299717e-09
6.445969463477268e-09
6.113506492654957e-09
5.790381250326441e-09
5.4762498256273085e-09
5.171000163663616e-09
4.874734766991886e-09
4.587717828944164e-09
4.310308207723094e-09
4.042894028896034e-09
3.785837080646623e-09
3.539430528939703e-09
3.3038729394452045e-09
3.0792597022871166e-09
2.8655876327484948e-09
2.6627659822569468e-09
2.470630495819157e-09
2.288959870425537e-09
2.117491944883072e-09
1.955936181895716e-09
1.8039825501502815e-09
1.6613084664615208e-09
1.5275831960273623e-09
1.402469400722458e-09
1.2856242012563044e-09
1.1767009140028945e-09
1.0753499920964125e-09
9.81219329469218e-10
8.939556663491713e-10
8.132065036280345e-10
7.386213579032862e-10
6.698534526472931e-10
6.065621220985543e-10
5.484143744151379e-10
4.950858708177053e-10
4.4626242289654005e-10
4.0164109510802755e-10
3.6093055146626726e-10
3.2385179742316233e-10
2.901388947646067e-10
2.595388695584283e-10
2.3181175528567834e-10
2.067308378613953e-10
1.8408229210624362e-10
1.6366489090722256e-10
1.4529005269438587e-10
1.2878141820299733e-10
1.1397438775869523e-10
1.0071595560874185e-10
8.88641542388056e-11
7.828745601406339e-11
6.886447251305053e-11
6.048336583642782e-11
5.304126511024281e-11
4.64439319943042e-11
4.060516737136079e-11
3.544625833735239e-11
3.089560493955993e-11
2.6888127615570168e-11
2.336478408884531e-11
2.0272205161779313e-11
1.756216573657755e-11
1.519121161503506e-11
1.3120318013291426e-11
1.131444141011689e-11
9.742232008220512e-12
8.37570092138263e-12
7.1898645176825034e-12
6.1625180550588944e-12
5.2739305967785886e-12
4.506598533719542e-12
3.845057072979709e-12
3.2756309346707826e-12
2.7862782724067927e-12
2.36641632829077e-12
2.006745420528094e-12
1.699137636698621e-12
1.4364799923903113e-12
1.2125684253801564e-12
1.0220050199788327e-12
8.600850046284359e-13
7.227311740293163e-13
6.064012936079839e-13
5.080298745880846e-13
4.249716329873263e-13
3.549427336205294e-13
2.959881948260572e-13
2.4643044357469445e-13
2.0484090425484948e-13
1.7000190983111205e-13
1.408746704050913e-13
1.1657446085282834e-13
9.634046353948483e-14
7.952188441052999e-14
6.555760594082415e-14
5.396967050963944e-14
4.435339973066192e-14
3.6372326854114234e-14
2.9752079594919954e-14
2.427112650104491e-14
1.9752444626121065e-14
1.6050230555593124e-14
1.3040817360534733e-14
1.0612017693066039e-14
8.659589471303041e-15
7.085200775491628e-15
5.800533761008187e-15
4.731538910953432e-15
3.823792950632184e-15
3.044116515685327e-15
2.378971993681573e-15
1.8281730059356286e-15
1.396356901849829e-15
1.0838730897573e-15
8.803401315369335e-16
7.624170655384412e-16
6.968526381464318e-16
6.474595481035991e-16
5.840425899004705e-16
4.899679604617117e-16
3.660855228651742e-16
2.29306915619832e-16
1.0638828690639461e-16
2.4655647324915913e-17
2.639217132344397e-18
1.4872902013747173e-09
8.857601485531575e-09
1.6577988746953937e-08
1.0382745468394614e-08
1.5175125516323957e-08
2.559042503444637e-08
3.284681548377541e-08
5.458749177111459e-08
6.055243821062301e-08
2.3826188926833087e-08
1.838269595038457e-08
3.183000466179486e-08
3.1536888298382176e-08
5.9172623817829255e-08
3.8065635926502886e-08
6.479465114256166e-08
2.8768556216354875e-08
2.734049964592208e-08
3.357830239439628e-08
6.53274124148506e-08
1.7195304126348926e-07
1.1596634863511666e-07
1.381618996676598e-07
5.127458061811275e-08
5.560797426690789e-08
2.58827504764766e-08
1.4223524759133263e-07
2.611900544437943e-07
4.049492096428082e-07
3.2805905708340173e-07
3.4101239584525996e-07
1.6140524506897918e-07
1.9337497869190344e-07
3.4183909479906917e-07
6.925896231807643e-07
9.199056939363821e-07
1.2287246191824988e-06
9.88088935452471e-07
9.608159964475027e-07
6.045341432581096e-07
1.123599471039625e-06
1.6267706501578377e-06
3.015353697052966e-06
3.241125408292005e-06
3.7230465166878576e-06
2.7163546902920173e-06
2.8266421873647133e-06
3.558167778804254e-06
6.155138366123914e-06
8.811425567497826e-06
9.703890697989346e-06
9.97079004694534e-06
7.917668078006181e-06
9.26253374955527e-06
1.1349357764967888e-05
1.7543832170061136e-05
2.1374353359674782e-05
2.2618959854279134e-05
2.1709726026496062e-05
1.8370475070525587e-05
2.279393636921702e-05
2.9417714136360097e-05
4.0891978210055396e-05
4.469881308354665e-05
3.9596341791816073e-05
3.5988785453992965e-05
3.547680431768959e-05
5.116465547178011e-05
6.582381810687185e-05
7.240241800062946e-05
6.795283275710988e-05
5.335329519435529e-05
5.928608862103075e-05
8.054905405625664e-05
0.00010877060304841678
0.00012056457019748758
9.67981351574253e-05
8.085768326243581e-05
9.308960797900736e-05
0.0001383949599201829
0.00018567127789771994
0.00017397261792882174
0.00012956882630629334
0.00010613108972782625
0.00014374635847855122
0.00023530199839767754
0.0002692274508350396
0.00020444227465073642
0.00012451082707953188
0.0001225956308365491
0.00024344546134214988
0.00036315701304697373
0.00031834380954545564
0.00016539395557217467
9.252350360052961e-05
0.00022083194076237222
0.0004518444525512173
0.0004902190637440767
0.00026236953874407
6.592307969373238e-05
0.00017329153749532167
0.000506390746525764
0.000681462940923458
0.000433461548660258
6.639148474180144e-05
0.00010502327837731724
0.000539941226160043
0.0008339040682571958
0.0006089996325766007
0.00013129560802938644
4.51519886880835e-05
0.0005347690290654404
0.0009770618043921577
0.0007810582377874277
0.00021841642653685762
1.4484677689757255e-05
0.00040098255735972763
0.0008940183390866238
0.0008949267896120847
0.0003991484556300698
9.475305616484488e-23
8.638912841609113e-24
7.5650954921989425e-25
7.01378947730251e-26
2.8852934081775276e-08
2.9441403364595176e-08
2.8922764358196632e-08
2.9966533312067207e-08
3.005493589273583e-08
3.4056225887155475e-08
3.881228183930012e-08