# vtk DataFile Version 4.1 
COMMENT
ASCII
DATASET STRUCTURED_POINTS 
DIMENSIONS 400 400 1 
ORIGIN 0 0 0
SPACING 0.002506265664160401 0.002506265664160401 0 
POINT_DATA 160000
SCALARS U double 1
LOOKUP_TABLE default
1.229017075755295e-06
1.43162155275909e-10
5.364165346150163e-10
9.532403914491133e-10
1.2340130132917989e-09
1.202839610118916e-09
9.359150414483048e-10
5.831432239730646e-10
1.6639655950644963e-10
3.2019112363642046e-11
6.413391844144273e-11
1.9994859549368335e-10
2.974805824474924e-10
2.676632688532182e-10
1.9683133232463678e-10
2.030117346322372e-10
3.924387634775139e-10
7.531334668910932e-10
1.1452677699001871e-09
1.4257835648235186e-09
1.4256653642779952e-09
1.3733997469584602e-09
1.3229702524883161e-09
1.196973854220198e-09
9.070055323821946e-10
5.629880547269988e-10
2.525178639531946e-10
1.04490363685673e-10
6.76814760839116e-11
7.951831197863831e-11
1.5760832198469813e-10
3.4780787612338505e-10
5.36518004118053e-10
6.424331596359017e-10
6.926612949354529e-10
8.446138756081358e-10
1.1187854246477534e-09
1.192860792209842e-09
9.5711290783125e-10
4.575041860716101e-10
1.4480523845203977e-10
3.7771793526946734e-10
1.0433395253785717e-09
1.4387378626890708e-09
1.3749385498841142e-09
9.055380551027065e-10
7.677726618995503e-10
9.46996692601481e-10
9.276554741645541e-10
4.299833904280932e-10
2.2636359219537367e-11
3.7054413121751405e-10
1.8194082611309058e-09
3.42854247820665e-09
3.919793794912616e-09
3.135129289871755e-09
1.928080399923011e-09
1.2624818785675484e-09
1.4929777020962347e-09
1.7969872757545692e-09
1.6120300120921853e-09
9.56631144700925e-10
5.240905609573118e-10
6.519864374023096e-10
1.0117304225422577e-09
1.5653405944434271e-09
2.03634240262539e-09
2.2835216064184307e-09
2.027494783394661e-09
1.2014713559815484e-09
2.7339186104147197e-10
2.9077636726768457e-10
1.3934442141962058e-09
2.6014944164504734e-09
2.4857895780110957e-09
1.321869360633033e-09
2.0122503137126864e-10
1.7196393815776816e-10
8.097896971794406e-10
1.041245945060757e-09
4.4049761547595306e-10
3.642172593797913e-12
6.524709155551742e-10
1.8374575208319207e-09
2.5155604763082255e-09
1.8116015911083e-09
7.213320784090957e-10
4.874937480496499e-10
1.1381682529893806e-09
1.9323326945600443e-09
1.690592171340086e-09
9.25831359361602e-10
1.3824413075970092e-10
1.0555648258868403e-10
9.384880930668043e-10
2.0146186570595115e-09
3.087254263959901e-09
2.9499214154771483e-09
1.8775459447736454e-09
5.514055372403751e-10
1.1325392061882683e-11
7.122360338953908e-10
1.7413346180798135e-09
2.0281821065792752e-09
1.3972039514633914e-09
1.160566109205976e-09
1.7926486732200213e-09
2.4419239441110425e-09
1.9198408341788615e-09
5.458489453049218e-10
1.4150787821475624e-10
1.640410708540158e-09
3.729580048256035e-09
4.208456426771084e-09
2.5792635204075564e-09
5.701857222676069e-10
4.046977239989535e-11
7.547930603396888e-10
1.136365650529857e-09
5.770034019881107e-10
1.8433055462157386e-28
2.6004875925858145e-29
1.092334885703965e-29
2.108774539575178e-28
7.036240549759535e-10
1.3502597686226765e-09
9.647243424550703e-10
3.239894922694225e-10
7.652286374234454e-10
1.8544675788682305e-09
2.0254411006406054e-09
1.0922813308102974e-09
5.13127477677372e-10
1.1731034797470422e-09
1.992877811643862e-09
1.651943094359366e-09
7.382043438182596e-10
5.590223775474984e-10
1.0666843045775313e-09
1.0888489114817732e-09
3.9634519090901024e-10
2.080499150668738e-10
1.1384142174249528e-09
2.185283724099097e-09
2.030738582390384e-09
1.1664713121340402e-09
1.1975225669835021e-09
2.2374564277418704e-09
2.98905361872128e-09
2.7138590904212958e-09
2.196104503883369e-09
2.3771964813855206e-09
2.8443545347000077e-09
2.5175588765038667e-09
1.613402084074988e-09
1.2893867730309353e-09
1.7710369634359536e-09
2.1154696966414154e-09
1.6614606551950332e-09
1.1827456651805259e-09
1.6352615923335862e-09
2.6264977822649607e-09
3.248994894963845e-09
3.291300032258331e-09
3.400376059248267e-09
3.731204927673841e-09
3.447116138204293e-09
2.70090665083331e-09
2.1436743004329166e-09
2.7040454060850084e-09
3.29995231757635e-09
2.990542893253556e-09
1.7388484895358594e-09
1.0598845998351879e-09
1.3467419760968542e-09
1.958702364795137e-09
2.096735390299317e-09
2.020493086272591e-09
2.3938980658238485e-09
3.110861279252157e-09
3.8092500202922706e-09
4.3212156136520175e-09
4.552804795243401e-09
4.14331061988157e-09
3.349221962565576e-09
2.3712448916690865e-09
1.9276435468366877e-09
2.0481096959995728e-09
1.9317331139596415e-09
1.4408731133857692e-09
7.108758832591905e-10
2.2616736277278296e-10
1.0907243981548624e-10
2.389201536218583e-10
3.8205131952807736e-10
5.384790905347848e-10
8.307845582493693e-10
1.1118992715302392e-09
1.594024041969267e-09
1.955626630321031e-09
1.9097138017501657e-09
1.6058249248899902e-09
1.1541270936568177e-09
8.914565884590582e-10
8.643371813207634e-10
8.805230781711933e-10
8.736392973048233e-10
8.155510036280508e-10
6.611500807786802e-10
5.950554712023308e-10
5.239467079104312e-10
4.563203145744767e-10
4.3738119645526313e-10
6.34212073736479e-10
8.261358085759652e-10
7.931964739144636e-10
5.513775143700608e-10
2.8703277638863126e-10
9.144551294874636e-11
6.879941384947797e-11
1.682362570701451e-10
2.0443351834153064e-10
2.1366941673140116e-10
2.642731369278786e-10
4.980954917677815e-10
1.0321785720822846e-09
1.6435260583950676e-09
2.3031811608491093e-09
2.6172807134288894e-09
2.6148681691442965e-09
2.541053455884119e-09
2.384246972314536e-09
2.1066677140354214e-09
1.6853692508978668e-09
1.1851105575517808e-09
8.02264046446823e-10
5.641448428700285e-10
3.099649065813561e-10
1.5535101436035063e-10
1.6779674387235669e-10
3.073154431190115e-10
3.998705482472619e-10
3.9666529527641105e-10
4.118814869335737e-10
7.449756343335526e-10
1.624810538060388e-09
2.7310746462924437e-09
3.3846437390515792e-09
3.2010958363394074e-09
2.4101913052765205e-09
1.4799919594130244e-09
1.0938640170930294e-09
1.1097996072568428e-09
1.1593984801663107e-09
9.560800242965994e-10
6.768666935068674e-10
4.3929471733630754e-10
2.957173789958935e-10
1.4198993673052363e-10
3.168456554727269e-11
5.003477943927833e-11
2.2004136242906763e-10
4.08534999792612e-10
4.4592114733377257e-10
3.568993484780938e-10
4.381865131127084e-10
7.61963884195594e-10
1.1255328096200334e-09
1.3000865202499728e-09
1.0721657756604637e-09
5.730806450412985e-10
2.7278946712979103e-10
3.5466710311115267e-10
7.307744163262193e-10
1.0033600817177163e-09
1.059669002493806e-09
7.774225496966714e-10
2.9788140867659863e-10
4.530370710374371e-11
1.2605978516351037e-11
1.053635322570235e-10
1.748049806679562e-10
2.1980138067380582e-10
2.2938699447412067e-10
2.732972154877784e-10
3.006963470978162e-10
2.3295187548328543e-10
1.0101795788725682e-10
9.317632132431747e-12
2.2143222486839608e-11
1.5165607542850552e-10
3.627309706387663e-10
5.108145144985543e-10
5.365399493837701e-10
4.157145537108926e-10
2.851325859792019e-10
1.7225886404892057e-10
1.0640624111915766e-10
5.7303058289320636e-11
7.214960869242493e-11
1.367036142511026e-10
2.1805864646156758e-10
2.435070257205289e-10
2.0469967727935992e-10
1.0779412843324471e-10
3.1227674077255683e-11
1.513819680920618e-11
4.2130453596750574e-11
5.937201777745984e-11
7.101297914229394e-11
4.8420912748516346e-11
4.64247112450184e-11
7.447429687765675e-11
1.0935421669145774e-10
1.1401718900232806e-10
8.873038615314073e-11
2.2383292162340213e-11
2.273850293259946e-12
4.7998015401125864e-11
1.3082789878069217e-10
1.5343317422701488e-10
1.275486200072599e-10
1.0794010640604288e-10
1.6925521564581206e-10
2.7145790441435885e-10
3.095562236684912e-10
2.7464543137323623e-10
1.4816005960312427e-10
2.1375748541306184e-11
7.651515213452554e-12
9.74806757723242e-11
2.1124141308432586e-10
2.7999593814104767e-10
3.0882954974575665e-10
2.2190596717160828e-10
1.6568093169051967e-10
1.2343401304493634e-10
7.587395825263007e-11
5.521341077623908e-11
4.177426024002219e-11
1.0846584203245919e-10
2.63159145546746e-10
4.406985370953199e-10
4.863070902674004e-10
3.695118939100599e-10
1.5836621282651877e-10
2.794306800595127e-11
4.7952306954400015e-11
1.416353273036749e-10
2.569390602787436e-10
3.518225770989378e-10
4.118261694359468e-10
4.471197201292327e-10
3.486346263045682e-10
1.5859911419982005e-10
2.952797158357868e-11
1.802160613145599e-11
1.0172257175251716e-10
2.118215866629502e-10
2.9786909635267215e-10
3.6930651974055635e-10
3.396077865325344e-10
2.258134148642048e-10
1.1886203531607022e-10
7.975699880541433e-11
1.256666204276299e-10
1.4582130299592182e-10
1.8779031539115372e-10
2.2461228987581259e-10
3.706321921001197e-10
5.648231746989536e-10
6.30566206138073e-10
4.10546564646067e-10
1.2337144234476397e-10
1.261392799173766e-11
1.355380829717693e-10
4.336190382468929e-10
6.870803447663389e-10
5.83888358681688e-10
3.674957123064485e-10
1.6140607893057986e-10
6.698640251135022e-11
8.348138879621048e-11
1.1839691686944743e-10
1.2355715927972752e-10
1.368114099392257e-10
2.188984444433705e-10
2.8147880434803997e-10
2.03615995026973e-10
1.0429091648237082e-10
1.3963469594074226e-10
1.973716125245873e-10
2.019812834364333e-10
1.1580654637373745e-10
1.6462683806246953e-10
4.270951940175756e-10
6.383503794273038e-10
5.29963115491297e-10
1.737046843336089e-10
6.947712283137001e-31
1.3996652747120633e-10
9.037673087378853e-10
3.3863399647567074e-09
6.0177042005261445e-09
7.790191603506345e-09
7.593397257713911e-09
5.908331126943985e-09
3.6813205356063638e-09
1.050443606961355e-09
2.0213321707328564e-10
4.0487053828527744e-10
1.2622540062139965e-09
1.877962963621231e-09
1.6897294656765034e-09
1.2425750586633156e-09
1.2815912745738162e-09
2.477423760692571e-09
4.754450679935636e-09
7.2299524143941766e-09
9.00081849661912e-09
9.000072309271543e-09
8.67012508115553e-09
8.351769099363711e-09
7.556367370785476e-09
5.7258285014752785e-09
3.5540831170891056e-09
1.5941181513605098e-09
6.596364422933139e-10
4.27265888627325e-10
5.019905621971799e-10
9.949644074600934e-10
2.1956737627766604e-09
3.3869805308302055e-09
4.055611530918458e-09
4.3726963538949715e-09
5.331956673954128e-09
7.062772213371544e-09
7.530402052111642e-09
6.042150980486825e-09
2.888174784637619e-09
9.141399163398202e-10
2.384492753427848e-09
6.586490355177897e-09
9.082597587580523e-09
8.679839378737288e-09
5.716564475036439e-09
4.846866345579844e-09
5.9782884003573105e-09
5.8561893658690105e-09
2.71443895783946e-09
1.4290090430699136e-10
2.3392052990098027e-09
1.1485728923881726e-08
2.1644020393871308e-08
2.4745237189313098e-08
1.9791734452390686e-08
1.21717644632437e-08
7.969912492057504e-09
9.425007867678033e-09
1.1344187651512852e-08
1.017657231288149e-08
6.039109661592851e-09
3.3085274170290746e-09
4.115920347308742e-09
6.386945484210156e-09
9.881827034329102e-09
1.2855210857525306e-08
1.4415626620737843e-08
1.2799356787673656e-08
7.584759616313394e-09
1.7258934528339811e-09
1.8356399733129518e-09
8.79666364978513e-09
1.642295481596264e-08
1.5692522599132883e-08
8.34481928733173e-09
1.2703120088030076e-09
1.0855898703766391e-09
5.112115376113553e-09
6.573273807509892e-09
2.7808141311990335e-09
2.2992644366884164e-11
4.1189788058483806e-09
1.1599671961643763e-08
1.5880463082292354e-08
1.1436446254569177e-08
4.5536919303407326e-09
3.0774956681272942e-09
7.185133926718764e-09
1.2198608742534307e-08
1.0672526785593039e-08
5.844673925052155e-09
8.72720348228286e-10
6.663667364126776e-10
5.924574525431618e-09
1.271807118518702e-08
1.9489504556223483e-08
1.862253703512574e-08
1.1852745875958135e-08
3.4809639283124273e-09
7.14959835889781e-11
4.4962695783618346e-09
1.099285840144749e-08
1.2803695785110472e-08
8.8203984673071e-09
7.3265291871865774e-09
1.1316798519735846e-08
1.5415603564074156e-08
1.2119748969739797e-08
3.4458857602757635e-09
8.933240353421796e-10
1.0355736601093393e-08
2.3544438238155525e-08
2.656753337803094e-08
1.628261355713752e-08
3.599521219147771e-09
2.554813261689067e-10
4.7649275151142185e-09
7.173754291015263e-09
3.642560498913864e-09
1.1636589917736127e-27
1.6416598845051311e-28
6.895792802158973e-29
1.3312467157914764e-27
4.441903080484465e-09
8.52404488346306e-09
6.0902011496977224e-09
2.045310863917704e-09
4.830806192324249e-09
1.1707054630920593e-08
1.2786392109040132e-08
6.895454715867757e-09
3.2393186498637203e-09
7.4056762607320394e-09
1.258082356333388e-08
1.0428539314038486e-08
4.660204729563152e-09
3.5290482230213755e-09
6.733863438721253e-09
6.873786221334255e-09
2.502084617465363e-09
1.313396766490112e-09
7.186686673780684e-09
1.37954614217106e-08
1.281983454230651e-08
7.3638080989741346e-09
7.55983133552117e-09
1.412482209576538e-08
1.8869574430887013e-08
1.7132300933280476e-08
1.3863771842193086e-08
1.5006986044478023e-08
1.7956104656066235e-08
1.589307876807269e-08
1.0185234055930146e-08
8.139760200861479e-09
1.1180366117253999e-08
1.3354732965325036e-08
1.0488622653281479e-08
7.466546341674705e-09
1.0323230783564848e-08
1.658079837865557e-08
2.051055578665713e-08
2.0777623574263e-08
2.1466208816434923e-08
2.3554695927386477e-08
2.17612739143784e-08
1.705053357342575e-08
1.3532785599511334e-08
1.7070348198185674e-08
2.0832244522105182e-08
1.88789760610414e-08
1.0977163738992775e-08
6.690937633061535e-09
8.501837437105236e-09
1.2365077638275267e-08
1.3236465301700954e-08
1.2755155825817388e-08
1.5112421353064963e-08
1.9638533108056173e-08
2.4047386214006015e-08
2.727937001297439e-08
2.8741367640603537e-08
2.6156274896663252e-08
2.114327849870722e-08
1.4969414297878055e-08
1.216900665663357e-08
1.2929496516632751e-08
1.2194823654606898e-08
9.096077195874465e-09
4.4876830934937655e-09
1.4277702678027476e-09
6.885625967249262e-10
1.5082772666136652e-09
2.4118489427893675e-09
3.399360658732279e-09
5.2446536789207914e-09
7.019300668405077e-09
1.0062902557576098e-08
1.2345660856915009e-08
1.205581810179537e-08
1.0137400263882894e-08
7.285880373660622e-09
5.627669688651831e-09
5.456467784372677e-09
5.5586476126089164e-09
5.515191043409112e-09
5.148485884882716e-09
4.1737694436466325e-09
3.756521272830986e-09
3.3076192881958464e-09
2.8807011310397566e-09
2.7611405126662565e-09
4.003712698689333e-09
5.215306621570113e-09
5.007364139974553e-09
3.4807870229421614e-09
1.8120070862049221e-09
5.772857007815063e-10
4.343233096599657e-10
1.062057420072986e-09
1.2905668424121122e-09
1.3488720768890788e-09
1.6683279269770762e-09
3.144423337451626e-09
6.5160324558532126e-09
1.0375403470097447e-08
1.4539735276161186e-08
1.652261201312919e-08
1.6507381880199885e-08
1.604139752407001e-08
1.5051495036396433e-08
1.3299166994583354e-08
1.0639555049852404e-08
7.48147565319355e-09
5.064606751393487e-09
3.561385796381626e-09
1.9567751608959126e-09
9.807142668924394e-10
1.0592828204649086e-09
1.9400493826457325e-09
2.524339819671495e-09
2.5041054019532995e-09
2.6001635854636715e-09
4.702951159259564e-09
1.0257254400520337e-08
1.7240980888315443e-08
2.1366892368893593e-08
2.0208174174556822e-08
1.521527882361914e-08
9.34303026896035e-09
6.905446044369092e-09
7.006045713378988e-09
7.319158070478054e-09
6.0356304976780005e-09
4.272986731626506e-09
2.7732203644507057e-09
1.866832049622781e-09
8.963672189727248e-10
2.0002125895632192e-10
3.158641881996014e-10
1.3890974856467594e-09
2.579037571599994e-09
2.815052305258016e-09
2.2530672512069276e-09
2.7662243902229917e-09
4.8101961558747254e-09
7.105367729942691e-09
8.207306555760154e-09
6.768467376884927e-09
3.6177965556648924e-09
1.7220906047746548e-09
2.2389753259782596e-09
4.613300395378901e-09
6.334104421670721e-09
6.689576590203414e-09
4.907785050716818e-09
1.880493336551513e-09
2.859974367254434e-10
7.958018832402526e-11
6.651486616943356e-10
1.1035250665777168e-09
1.3875825066030224e-09
1.448095456902041e-09
1.7252959656197046e-09
1.8982637404428453e-09
1.470600167797279e-09
6.377155174704635e-10
5.88212108144655e-11
1.3978778508291214e-10
9.5738851430127e-10
2.289881655513497e-09
3.2247171617588434e-09
3.3871190689354657e-09
2.624361324306551e-09
1.8000113882559102e-09
1.0874517058485221e-09
6.717311707401931e-10
3.617480518701326e-10
4.554727298480203e-10
8.629952329814602e-10
1.376580812713989e-09
1.537233697481523e-09
1.2922470751976195e-09
6.80492754276474e-10
1.9713695218232312e-10
9.556581041290735e-11
2.659650281854132e-10
3.748091708849978e-10
4.482973095871694e-10
3.056760211315611e-10
2.9307421545856113e-10
4.701482366589693e-10
6.903414238763517e-10
7.197782672096517e-10
5.601453969615657e-10
1.4130331915767241e-10
1.435457265959595e-11
3.0300631560228286e-10
8.259024723467232e-10
9.68607148132221e-10
8.052007376881856e-10
6.814142975387737e-10
1.0684899961114728e-09
1.7136845923796708e-09
1.9541951895649754e-09
1.7338071076882876e-09
9.353185419142195e-10
1.3494280450166552e-10
4.830319366805927e-11
6.153850354300239e-10
1.3335443506649664e-09
1.7675842821979153e-09
1.9496077751451917e-09
1.400868535103078e-09
1.045925925427331e-09
7.792256658985319e-10
4.789841485769344e-10
3.485563315759752e-10
2.637164177842893e-10
6.847332100773434e-10
1.6612954190454713e-09
2.7820825278004435e-09
3.070004425010777e-09
2.332688895763857e-09
9.997488909369545e-10
1.7640158686454188e-10
3.027177630877974e-10
8.941286077507958e-10
1.6220286888684312e-09
2.221018138803062e-09
2.599814372042988e-09
2.822618766573103e-09
2.2008929478665076e-09
1.0012191722899019e-09
1.864069129103869e-10
1.13768463747772e-10
6.421636691169549e-10
1.3372069241484652e-09
1.8804156101730715e-09
2.331392390691696e-09
2.143907477988269e-09
1.425535832674605e-09
7.503632615873961e-10
5.034973664964783e-10
7.93319876493759e-10
9.20554222666506e-10
1.1855000898876634e-09
1.4179532596396786e-09
2.339761217902784e-09
3.5656680323557705e-09
3.980696728155251e-09
2.5917363644510447e-09
7.788306637892689e-10
7.963037250826164e-11
8.556373592085853e-10
2.7373904120026284e-09
4.337464414945606e-09
3.6860244909845286e-09
2.3199609578649687e-09
1.0189392391298551e-09
4.2287796382388837e-10
5.270090404593708e-10
7.474270187937717e-10
7.800030748512255e-10
8.636757355818915e-10
1.3818823671676411e-09
1.776945457283111e-09
1.285405905540183e-09
6.583773535221486e-10
8.814988368510106e-10
1.2459857895323268e-09
1.2750861468588648e-09
7.310742880945867e-10
1.0392715455771219e-09
2.6962060841305575e-09
4.029837378006458e-09
3.3456002230116863e-09
1.0965790140054377e-09
1.558719645950224e-10
4.4961425457892236e-10
2.94232345043912e-09
1.1642677992187556e-08
1.9102674424339936e-08
2.521478989251715e-08
2.3478133596338127e-08
1.807284548279716e-08
1.04051298191935e-08
2.6385366602278493e-09
2.6231403546205397e-10
1.3387858086518937e-09
4.617555960036065e-09
6.091591054414196e-09
5.575187241584895e-09
3.3162773239577247e-09
3.5323058427964816e-09
7.31217314948776e-09
1.4440279219357153e-08
2.2867600335208724e-08
2.6936742034629204e-08
2.5619270597357875e-08
2.474268429484644e-08
2.3250444337928832e-08
2.2591804088281478e-08
1.660713312997622e-08
1.0221549287896552e-08
3.6781427922131988e-09
1.067093279483562e-09
5.327789794231456e-10
7.508764878450757e-10
2.7253153098238894e-09
6.875978504797903e-09
1.138535578939827e-08
1.4316575611144588e-08
1.4554474095873849e-08
1.626395910596438e-08
2.1929251756423134e-08
2.3105945486294758e-08
1.9740308125474315e-08
9.660597475403783e-09
3.2246889474318346e-09
8.818307960930675e-09
2.3063813218829748e-08
3.012009400087065e-08
2.793304317011457e-08
1.6729532103213477e-08
1.432388935533777e-08
1.8630451719244197e-08
2.098230060580543e-08
1.025951835066626e-08
6.318656431318651e-10
7.3393137547264905e-09
3.909888510394302e-08
7.42109023009968e-08
8.161584884990171e-08
6.388521676382109e-08
3.3901471451183675e-08
2.1831139476968842e-08
3.057999816700512e-08
3.8811175147339597e-08
3.5489895913258964e-08
2.0359761275798978e-08
1.1482767008461278e-08
1.4418274831820603e-08
2.1487277144149504e-08
3.1290099764521674e-08
3.9161010453655844e-08
4.46614877100308e-08
4.095515270023885e-08
2.4150627302660796e-08
4.4699607036739164e-09
5.86997932795912e-09
3.0490257347998645e-08
5.933804749145656e-08
5.5930773196509854e-08
2.843118068164705e-08
4.367675029136595e-09
6.229071082381947e-09
2.3552869654300626e-08
3.009037283357732e-08
1.399866153889092e-08
2.722601748391859e-10
1.1644319981837476e-08
3.678190186147148e-08
5.30963680429919e-08
3.5725966423159576e-08
1.2316731425410428e-08
6.585842857577879e-09
2.1663869323980642e-08
3.826803877541045e-08
3.486196728044841e-08
1.8397265436695275e-08
2.931169211984196e-09
1.6603252355508894e-09
1.7483239666447123e-08
4.011290444506442e-08
6.555358484905669e-08
6.743218694709395e-08
4.346847999492455e-08
1.338807953583049e-08
6.057477672131275e-10
1.7881220359756797e-08
4.0472348375771336e-08
4.52898379493227e-08
2.660618449801996e-08
2.068385327325596e-08
4.017731308593583e-08
6.202327277329896e-08
5.1862331582617704e-08
1.5948228203913042e-08
2.606739908661693e-09
3.7440315473961846e-08
8.70313324669549e-08
9.909943570420798e-08
5.838108442487185e-08
1.127757727979114e-08
1.866958848332481e-09
2.29063031559156e-08
3.203997243935234e-08
1.618844873752154e-08
3.6710820378608275e-27
5.167640066138186e-28
2.0853044675402676e-28
4.041040328951505e-27
1.8424338635544238e-08
3.491042575790189e-08
2.4131137752987352e-08
7.276488577675518e-09
2.027955446133887e-08
5.086880320505989e-08
5.552402834375821e-08
2.991334730089792e-08
1.3948521164894285e-08
3.155620473124887e-08
5.3765737086437104e-08
4.480817540169105e-08
2.0124245129083213e-08
1.5159980214640556e-08
2.894965927593554e-08
2.992267958723296e-08
1.1541104428704224e-08
6.089965225681528e-09
2.9714101610671143e-08
5.551779999322398e-08
5.1316834033975235e-08
3.170670570727664e-08
3.5522980446120534e-08
6.37130973501341e-08
8.161687535470343e-08
7.194200239719632e-08
5.771097072501023e-08
6.26953619165055e-08
7.539614837393663e-08
6.673928700295205e-08
4.184944214146701e-08
3.194189155524103e-08
4.312954492833228e-08
5.192518844703558e-08
4.176587896602965e-08
3.123836066889997e-08
4.503256455421131e-08
7.09723409783276e-08
8.678297733327192e-08
8.732976368974303e-08
9.269109471077632e-08
1.0322962998251019e-07
9.942476430652644e-08
8.06582829652327e-08
6.306934219842319e-08
7.21014998279731e-08
8.3909688868038e-08
7.566922789635365e-08
4.57666289503395e-08
2.909466822955774e-08
3.561616660617856e-08
4.978077528012567e-08
5.312148279738085e-08
5.294474858138576e-08
6.496435958929027e-08
8.583180059061908e-08
1.0367538028621371e-07
1.1481634684716544e-07
1.1915466321480016e-07
1.1185706935306809e-07
9.578154681317239e-08
7.144554112522413e-08
5.6386874949947735e-08
5.498133277736189e-08
4.9904095797477366e-08
3.676751463852731e-08
1.7007581138175953e-08
5.282645706854957e-09
3.1322087619011433e-09
7.088415135627757e-09
1.2027720494265836e-08
1.708758530724927e-08
2.5357633977511858e-08
3.458580611414926e-08
4.841485810595441e-08
5.611360216946413e-08
5.503266184912337e-08
4.85758814583209e-08
3.610408485351086e-08
2.7861544282918228e-08
2.6575418761916773e-08
2.5905725614392303e-08
2.4039575608055114e-08
2.130288065690431e-08
1.7092690207945824e-08
1.4982756896018028e-08
1.332829642854424e-08
1.2894169709879988e-08
1.3390151195854357e-08
1.7530700062629855e-08
2.1611721157842686e-08
2.2520010985521096e-08
1.75896267195692e-08
1.0908970480290904e-08
4.815190101795161e-09
1.8935035417035067e-09
2.419882356329283e-09
3.5879991001301318e-09
5.383977643346449e-09
7.990609122121562e-09
1.5127171384862633e-08
2.831513602084904e-08
4.293580025712762e-08
5.8909059586269425e-08
6.910059532455866e-08
6.879465478432743e-08
6.673460556851195e-08
6.327745169980999e-08
5.6496489283872814e-08
4.6033854318818775e-08
3.416710571519685e-08
2.3788842519165844e-08
1.6342218532795746e-08
8.093042672904303e-09
2.651954570479921e-09
2.0940435477704002e-09
5.862495323573002e-09
8.800633546211768e-09
8.954328575190783e-09
1.0406920665078257e-08
2.0857539079388255e-08
4.441201687263965e-08
7.03624717740574e-08
8.46267128399443e-08
7.868612981155052e-08
5.9551264645828456e-08
4.005819245367328e-08
3.3081234408576995e-08
3.309472132502918e-08
3.197223261514084e-08
2.4930741991484878e-08
1.6344477422805016e-08
9.763577099679998e-09
6.4370213132367544e-09
3.2510873970275535e-09
1.010851423612007e-09
1.977268342723403e-09
6.427816253450401e-09
1.1101108917841162e-08
1.1866201062755366e-08
9.51188363064042e-09
1.2041093933773068e-08
2.1414388680735108e-08
3.174899694649718e-08
3.571501634899194e-08
3.006846253699187e-08
1.6639507458610114e-08
7.898025019084847e-09
9.588350996189611e-09
1.928600147766681e-08
2.6024591971580664e-08
2.691453726944983e-08
1.9939067174599807e-08
8.069813588463629e-09
1.5656244607243125e-09
9.51959662735825e-11
1.9831273748386112e-09
3.763473375306488e-09
5.7335584194248785e-09
6.9477730448048095e-09
8.21867777180024e-09
8.412663286463298e-09
5.577369102482822e-09
2.186766642829696e-09
3.6760021758463675e-10
1.3619059526943612e-09
5.013679931984791e-09
1.0352649996934538e-08
1.3109522440734029e-08
1.2658398834004458e-08
1.0492131527351868e-08
7.720154004750397e-09
4.753551711462861e-09
3.0583191433771643e-09
1.6960948805160516e-09
1.6142999182239896e-09
2.9191994640745086e-09
5.168056118746573e-09
5.9297133844349255e-09
5.051061814987569e-09
2.9075978830404304e-09
8.171643751740774e-10
2.4681052801466797e-10
9.194795594494308e-10
1.5339950372714454e-09
1.9979721722749392e-09
1.8927045457111257e-09
1.769945362544936e-09
2.1329738457381466e-09
2.0734474122066494e-09
2.0774855332599864e-09
1.5094467221794595e-09
2.881509236191299e-10
1.7718252113472588e-10
1.2940819605348473e-09
2.9752783702294087e-09
3.0519161401175135e-09
2.400930184403159e-09
2.104533648074729e-09
3.690162562174637e-09
6.20029609183349e-09
6.857682392461399e-09
5.714109935071155e-09
2.963033870457899e-09
3.5762875647094423e-10
2.11520347844272e-10
1.910896114965047e-09
3.798775258524285e-09
4.427834709379982e-09
4.346122859190031e-09
3.152895087884373e-09
2.4646792677505105e-09
2.1159066277767814e-09
1.6669997905564593e-09
1.4949275817803564e-09
1.0934442044637747e-09
1.8408786174627254e-09
4.573479677797231e-09
7.742490418706494e-09
8.977362018345914e-09
6.645748378187348e-09
2.608612450004151e-09
4.845073522472914e-10
1.553736339012953e-09
3.5059592561679847e-09
5.0945691973499485e-09
6.428070962165449e-09
7.711790203508135e-09
8.628345129207847e-09
7.455918727622613e-09
3.306580434572419e-09
5.62360247285219e-10
5.282085488314368e-10
2.3599494964072173e-09
4.0811711595152665e-09
5.7848212070245446e-09
7.454129466017104e-09
6.840267159381176e-09
4.633241679626993e-09
2.06530404501617e-09
1.2913611202317326e-09
2.4695570304337265e-09
3.1085178950854053e-09
3.61156580520045e-09
3.9797363993416075e-09
7.044269943742395e-09
1.1281390288541473e-08
1.2987624941582088e-08
8.67835065590759e-09
2.3567194530517252e-09
2.0941000339093694e-10
3.384481999379654e-09
1.0347529632096151e-08
1.440767242943237e-08
1.182252664614439e-08
6.726661434748429e-09
2.610981038381147e-09
1.5002649028513322e-09
2.415754285392949e-09
2.7036570290387292e-09
2.4031131021807167e-09
2.7955086414302992e-09
5.106565601764835e-09
6.598587740715377e-09
4.11140695179462e-09
2.00524580972591e-09
3.084204245158815e-09
5.232564275673261e-09
5.799788760392508e-09
2.883451882247341e-09
3.2817776183654787e-09
8.850086067603563e-09
1.4359864867157178e-08
1.1956735541065207e-08
4.119835437152145e-09
6.030469102254899e-10
7.252722122640462e-10
4.757659007126986e-09
1.7807877218773864e-08
2.8752476174651733e-08
3.763933921514902e-08
3.278873923898798e-08
2.3434366578149893e-08
1.2888791553551794e-08
2.3016966989546664e-09
3.2372202244148024e-11
3.2451180588284977e-09
8.834940282986187e-09
1.1256114759562664e-08
9.548007777580748e-09
5.049571442998916e-09
4.416070910503291e-09
1.0409480857740405e-08
2.218119711245662e-08
3.411813252118771e-08
3.7584841706826145e-08
3.133083237203279e-08
2.793033340757262e-08
2.782856581342329e-08
2.9417620716356496e-08
2.2127533490775384e-08
1.2514933977026877e-08
3.324023581786648e-09
1.1588721366915559e-10
1.208976932672228e-10
7.1198240672664645e-12
1.3615596633117583e-09
7.727401930405028e-09
1.617813206798513e-08
2.0741988191075447e-08
1.990372494952808e-08
2.1200515438687135e-08
3.081623701686758e-08
3.732328865672202e-08
3.5295701016420847e-08
1.9361531656130952e-08
6.0804478454650875e-09
1.3195824745199087e-08
3.851632334553959e-08
5.034579343388123e-08
4.441714275143135e-08
2.393310206459543e-08
1.8028296772616738e-08
2.9092188557231775e-08
3.9393092859767615e-08
2.303515676802587e-08
3.3226702826889256e-09
1.0320504666061351e-08
6.135341079723432e-08
1.1844791007444403e-07
1.2692169402592985e-07
9.024905024778846e-08
4.004025344789906e-08
2.9646563500394915e-08
5.783476368007209e-08
8.015142705550689e-08
7.064684634460578e-08
3.771383442566015e-08
2.2360455603611437e-08
3.075266501537466e-08
4.4644298026142754e-08
5.354056876112756e-08
5.594147969844996e-08
6.162391295092538e-08
5.8675626357792946e-08
3.558418212723257e-08
4.9188046254045114e-09
7.605879539577098e-09
5.077973760125705e-08
9.971112455418103e-08
9.315658769961432e-08
4.39630783209124e-08
5.778499317383525e-09
2.031806200194048e-08
6.210426351822822e-08
7.560748292923422e-08
3.8676508521899256e-08
2.7378696141753152e-09
1.544003932277891e-08
5.8627991420062076e-08
8.569663665263708e-08
5.560394623366782e-08
1.4283652447743033e-08
6.187852296181389e-09
3.290571203943507e-08
5.872315841628683e-08
4.862586154633074e-08
2.4622685964668433e-08
5.6569943411641176e-09
6.366804155546754e-09
2.508748715861852e-08
5.306652184200638e-08
9.432943993720985e-08
1.0681454712818188e-07
7.748803905656822e-08
2.879508173610266e-08
3.5510216469616388e-09
3.279471882885213e-08
7.553556293952178e-08
8.051232448947851e-08
3.819077019732778e-08
2.134725793587441e-08
6.29115461448787e-08
1.1580418878214202e-07
1.0830104249263868e-07
3.9025937587570925e-08
2.8219564479146133e-09
5.7799549137193536e-08
1.5072105661091842e-07
1.7280008179782908e-07
1.0023135857874791e-07
1.535430160307336e-08
6.769638175437407e-09
5.4379328874179035e-08
7.279096869671124e-08
3.585575707499609e-08
8.501510225499816e-27
1.230223658497784e-27
5.001686075913445e-28
9.243090044556801e-27
4.22929732298382e-08
7.98485387256492e-08
5.405162471939248e-08
1.3896026039432352e-08
4.2273825396228995e-08
1.1176616574595752e-07