# vtk DataFile Version 4.1 
COMMENT
ASCII
DATASET STRUCTURED_POINTS 
DIMENSIONS 400 400 1 
ORIGIN 0 0 0
SPACING 0.002506265664160401 0.002506265664160401 0 
POINT_DATA 160000
SCALARS U double 1
LOOKUP_TABLE default
6.5589776130478e-07
5.835659899335459e-11
1.5849569909941799e-10
3.836299783698197e-10
7.625452894335185e-10
1.2287924558844847e-09
1.6652820092928079e-09
1.5436450191317491e-09
1.0940353306786245e-09
3.660645742102505e-10
5.790753393193552e-11
7.864900481250565e-10
2.3067039584860913e-09
3.914661045760291e-09
3.923941476342751e-09
2.4224455529934606e-09
8.948807062670892e-10
5.997176205784304e-10
1.69219008078473e-09
3.485000757816735e-09
4.316861465892591e-09
4.030387192808412e-09
2.8641439898804383e-09
1.6258232923364567e-09
1.5483167623402657e-09
2.2592062918202584e-09
3.1814684884997775e-09
3.5944395474560653e-09
3.0113403031688708e-09
1.6941910908885285e-09
6.953466926068151e-10
6.193681271022346e-10
1.9030137987096884e-09
2.995876700101207e-09
2.549090665757909e-09
1.2774446631199222e-09
3.4598520225540175e-10
5.358688686524652e-10
1.4867109955051595e-09
2.2641858876595126e-09
3.131746862437589e-09
3.09410131835441e-09
2.8358466047134112e-09
2.034850429922782e-09
1.631653696768049e-09
2.165634277555346e-09
3.931953216441636e-09
6.5973752627795856e-09
9.0765290927849e-09
1.01298071428847e-08
8.221565107077825e-09
4.806051001268849e-09
2.6305153657482664e-09
4.063266502909762e-09
8.150125945439306e-09
1.2727431844283614e-08
1.3890674493649618e-08
1.1782620904759827e-08
7.918381604089402e-09
4.865670929436275e-09
4.189963765252822e-09
5.480265457928075e-09
7.2722479061454186e-09
8.198478165873579e-09
7.667952567408246e-09
6.781780264006598e-09
6.446092204186116e-09
7.17537507237738e-09
7.523198119896638e-09
6.667288659308128e-09
5.066683060800676e-09
3.4567118694519304e-09
3.1352449422906675e-09
3.798458826415411e-09
5.188718957881786e-09
5.838099806269298e-09
5.6749350447127926e-09
4.6889852485296105e-09
3.846510312159548e-09
3.6400623141818485e-09
3.961318640020219e-09
3.708182039480674e-09
2.495852495646059e-09
9.185433783009158e-10
4.1251125727310237e-10
1.6743036658490608e-09
3.356410420408399e-09
4.153556696956776e-09
3.6289549427039377e-09
2.2510001053730772e-09
9.697097517139903e-10
2.5624707578511844e-10
5.787092972551048e-12
1.4293381093148411e-10
4.5035585506332856e-10
5.869561398739608e-10
6.372323211161847e-10
6.261233510848953e-10
7.845002186162807e-10
1.03881883151808e-09
9.209423100391989e-10
5.969971296064737e-10
3.0135533647122544e-10
1.8886494617612397e-10
2.2907411019745592e-10
2.0870651163241068e-10
1.2094473076951312e-10
7.995911219124429e-11
7.65115689730872e-11
3.014517832792892e-10
6.011527179507879e-10
6.139936776589047e-10
5.114662275321983e-10
4.86463641323789e-10
4.1771288541836627e-10
3.539236744565014e-10
4.196149356138605e-10
5.135863526961783e-10
4.75035273331808e-10
1.8128099603749612e-10
6.191708643187858e-29
5.6172678662381016e-30
4.702147956728118e-31
1.0008844282896742e-31
5.83705305063492e-14
8.826954721292827e-14
2.1840856730727062e-13
4.0057021295547854e-13
9.246004456151198e-13
1.21711246149625e-12
2.008786822675894e-12
2.2553858996613735e-12
3.0173499558803186e-12
3.2935824608771605e-12
4.144414384467675e-12
4.960212381937668e-12
5.8090369371601345e-12
6.8321841663884525e-12
7.43454071783814e-12
8.851582855850046e-12
9.371017286938711e-12
1.1112501041517058e-11
1.0893712272660231e-11
1.3092765598393262e-11
1.1730338278019222e-11
1.5047677030537846e-11
1.3280528845772533e-11
1.7291032191942906e-11
1.6218117620375997e-11
1.942961574536365e-11
1.9775177614308502e-11
2.143552088402969e-11
2.4200745426656637e-11
2.2555244826323678e-11
2.928814278097479e-11
2.501007160391492e-11
3.235475186007446e-11
3.029896379155846e-11
3.397954926479692e-11
3.458098876419565e-11
3.551873810086709e-11
3.9510385979747585e-11
3.219498956082281e-11
4.2497953735109675e-11
3.322292162813682e-11
3.6154801545133794e-11
3.739054791507914e-11
3.116822314702484e-11
3.8033383724161275e-11
2.989368922095746e-11
3.813247303806794e-11
3.386873043358175e-11
3.4584409514330446e-11
4.2612019595474674e-11
3.467897277386265e-11
4.47452801226248e-11
4.209905641670079e-11
4.1907964396416384e-11
4.531225958504574e-11
4.4435179061863913e-11
5.081724273356926e-11
3.837236839427826e-11
4.5281108972672555e-11
6.084503190440847e-11
5.589034211577346e-11
4.2176310177459463e-11
3.088597072457997e-11
7.041440213307989e-11
9.259691494894391e-11
4.2278166342443354e-11
7.934875604445182e-12
3.4865746906070726e-11
1.1051969768518123e-10
1.2633109865764376e-10
4.9696864105175704e-11
4.116208930916697e-11
1.0910004687693023e-10
1.6924476101698688e-10
2.1968694846391974e-10
2.3418330620862503e-10
2.2938207231231775e-10
1.9721398667769573e-10
1.1905518098593333e-10
1.071080011500164e-10
1.6764597671876772e-10
2.0086960526193144e-10
1.9769978041796635e-10
1.5726530816996038e-10
1.4631938598772938e-10
2.120310503055789e-10
2.144933619400042e-10
1.4020600589531324e-10
1.1654870789819403e-10
1.0952808422150844e-10
8.377798295694171e-11
8.431005271380147e-11
1.0017491592935081e-10
1.277441945812097e-10
1.5045867172574762e-10
1.43604342303445e-10
1.5910922290831032e-10
1.9167254238396341e-10
2.001054599314859e-10
2.3071751777188986e-10
2.82916929312939e-10
3.387541032571817e-10
4.3040868345297895e-10
4.897760272509802e-10
5.00060329804149e-10
5.852526403736603e-10
6.906212028687838e-10
7.005067545042828e-10
7.217516886735641e-10
7.951968954663493e-10
8.1312760535943e-10
7.951932309523508e-10
7.782449215815258e-10
7.181961349196948e-10
6.489457548558804e-10
5.932950364462718e-10
5.059247850700336e-10
4.236704219883421e-10
3.733286006817969e-10
2.954087719443128e-10
2.1388061215207566e-10
1.8596697655906012e-10
1.5807905530789256e-10
9.841176185514481e-11
6.349089368817759e-11
6.43700787877338e-11
6.094992086329246e-11
4.593615021922951e-11
3.462093617399023e-11
3.435831066090896e-11
5.132839954027957e-11
8.801625302134823e-11
1.2268904869457773e-10
1.404666944355894e-10
1.9557099099244457e-10
3.2626181009937465e-10
4.4355433931661205e-10
4.974704171591063e-10
6.070354275836817e-10
8.192828733689722e-10
1.0077214496785898e-09
1.122004078700853e-09
1.222818837568055e-09
1.328911848416892e-09
1.4570364338664705e-09
1.5947500083969837e-09
1.6313097815461276e-09
1.5914809987221208e-09
1.655925889045878e-09
1.7811217612685538e-09
1.829582651443855e-09
1.9907504477142474e-09
2.4038952705551715e-09
2.7489989357925166e-09
2.8371597494170007e-09
2.9471432985284648e-09
3.1336377830922985e-09
3.0289267215313794e-09
2.548633529047845e-09
1.99912187825809e-09
1.5173560059133661e-09
1.0428842929100767e-09
6.452718173895181e-10
4.747435117719248e-10
6.168231660277012e-10
1.1210113143077762e-09
1.9936032287576946e-09
3.209661876394738e-09
4.716652737147192e-09
6.27119333869048e-09
7.538721028260024e-09
8.53566792524127e-09
9.471728160428695e-09
1.0059552381220163e-08
9.736439836563175e-09
8.618001733821882e-09
7.375995451026963e-09
6.223204199618748e-09
4.885551809234723e-09
3.4182721087121717e-09
2.2203709450711436e-09
1.4157715459778548e-09
8.559619278217557e-10
5.108750644165435e-10
4.30745393921315e-10
5.658928591411317e-10
8.381659913374139e-10
1.1758000395603915e-09
1.5061993695407809e-09
1.9180787143180142e-09
2.6020610072239725e-09
3.442953151757296e-09
4.054122635382696e-09
4.376169981883799e-09
4.725210255163844e-09
5.086075174964253e-09
4.9489941786854e-09
4.070508082660761e-09
2.857232531075426e-09
1.8214815613225228e-09
1.116833683155983e-09
7.116115702172376e-10
6.398718769895678e-10
9.811627229342814e-10
1.7986944433322903e-09
3.028122847509383e-09
4.33548743449777e-09
5.300987902541178e-09
5.720254451475317e-09
5.649191980360729e-09
5.2391040608964385e-09
4.526048512788811e-09
3.408203211584632e-09
1.9675891713960088e-09
7.998920817708286e-10
2.744365073974761e-10
1.8568145081597777e-10
3.8444088798200227e-10
8.321188884477377e-10
1.2404134501112311e-09
1.5037975789402219e-09
2.0247483316548346e-09
2.8676054577691065e-09
3.2744980660017345e-09
2.9690851353478444e-09
2.803382784176905e-09
3.1188568920038985e-09
3.2380409762002064e-09
2.6951903607965175e-09
2.0531733148548375e-09
1.5812634166145333e-09
9.645040906646282e-10
3.4491499670960554e-10
3.041436186539664e-11
5.789315759872524e-11
3.7992405791510017e-10
7.197227377489532e-10
1.0250043157420267e-09
1.454462303576158e-09
1.7530403420457472e-09
1.6558291994692493e-09
1.5238364848448016e-09
1.4482673417084859e-09
1.1320660707176297e-09
7.61712359433728e-10
5.488046902509929e-10
3.8615546817471697e-10
2.3889080393773213e-10
1.8539060226660397e-10
1.7067228897749933e-10
7.901003100251462e-11
2.0792877439191727e-11
6.279430241112219e-11
1.6926962356296739e-10
3.5974715090345524e-10
4.5518122368518654e-10
4.89030096744075e-10
5.147134338867346e-10
4.387063576392591e-10
3.312400187011431e-10
2.3266879259797909e-10
1.102635682010748e-10
4.1978833826208473e-11
2.189798850718542e-11
2.1680599256798408e-11
9.725350600926151e-12
8.305392676716969e-12
5.154837784254009e-11
1.2260323788134013e-10
1.1416314517483155e-10
8.715873157196438e-11
9.948842101839567e-11
9.776303494654395e-11
5.1993597026022806e-11
1.7753648031835758e-11
3.707832073772269e-31
4.7288067985520405e-11
3.6839894117041975e-10
1.00056632386922e-09
2.4218148464883385e-09
4.813866504691089e-09
7.757234785351247e-09
1.0512746451236488e-08
9.744865197779727e-09
6.9065275286335966e-09
2.310926336786931e-09
3.6556404167323933e-10
4.965027194325323e-09
1.4561974319248144e-08
2.471283469523997e-08
2.4771421056665405e-08
1.5292638573187044e-08
5.649285776578153e-09
3.7859529210654735e-09
1.068261421628035e-08
2.2000435448679885e-08
2.725188274586249e-08
2.5443401431027886e-08
1.80810333609697e-08
1.0263647809481882e-08
9.774357410847756e-09
1.426212665146766e-08
2.0084268835883352e-08
2.26913107724919e-08
1.9010267875918427e-08
1.069524637813054e-08
4.389648980946867e-09
3.910004458024578e-09
1.2013521702270242e-08
1.891264781074884e-08
1.609213556670005e-08
8.064370943734636e-09
2.184167418427489e-09
3.3828826083617304e-09
9.385446822096189e-09
1.4293562305126068e-08
1.9770381551316484e-08
1.9532729275151337e-08
1.7902395007925655e-08
1.2845792194111441e-08
1.0300454526395565e-08
1.3671416576291712e-08
2.4821998311342244e-08
4.1648521388107116e-08
5.729915322284705e-08
6.394838441706038e-08
5.190185741557776e-08
3.034008373723254e-08
1.6606160951643794e-08
2.5650964984022654e-08
5.145086966166961e-08
8.034691013756134e-08
8.769033603528219e-08
7.43824201616046e-08
4.9987892527151136e-08
3.071645793978054e-08
2.6450791192223883e-08
3.45963271825254e-08
4.590891989538076e-08
5.175611203559979e-08
4.8406960917991165e-08
4.28126503533043e-08
4.069348768901847e-08
4.5297372101233485e-08
4.7493141639402715e-08
4.2089877150763466e-08
3.198542593370848e-08
2.1821850735035608e-08
1.979246455368869e-08
2.3979262566179093e-08
3.275582544370361e-08
3.6855296987436854e-08
3.582525537379542e-08
2.9601060214608063e-08
2.428260643431338e-08
2.2979322398340034e-08
2.5007379076156916e-08
2.3409354907187316e-08
1.575604871727125e-08
5.79866568344211e-09
2.6041392579714083e-09
1.0569699200030255e-08
2.1188658460933e-08
2.6220957280674138e-08
2.2909202755279366e-08
1.421032187788014e-08
6.121673502850049e-09
1.6176602650885106e-09
3.653329632498565e-11
9.023257954187501e-10
2.8430481388081308e-09
3.7053910641308584e-09
4.0227791959826904e-09
3.952649461426244e-09
4.952465614370565e-09
6.557951700419236e-09
5.813809881828725e-09
3.768778753776411e-09
1.902423869572958e-09
1.192284118603546e-09
1.4461202520713867e-09
1.3175417900811455e-09
7.635110942757979e-10
5.047732865915577e-10
4.830093165673112e-10
1.9030327279125954e-09
3.795012536628628e-09
3.876076135976164e-09
3.2288313561375932e-09
3.0709927150140924e-09
2.6369765777284373e-09
2.2342821407355686e-09
2.6489840163071123e-09
3.242215478568167e-09
2.998846655439388e-09
1.1444074559954675e-09
3.9087591592613125e-28
3.546120867030639e-29
2.968415497761538e-30
6.318475887497586e-31
3.684868893155248e-13
5.572361702322338e-13
1.3787898254267599e-12
2.528756727821174e-12
5.8369032987871175e-12
7.68350023536501e-12
1.2681255441139793e-11
1.4238008926129529e-11
1.904820616796919e-11
2.07920323009705e-11
2.6163242843936362e-11
3.1313287974412813e-11
3.6671826216489246e-11
4.313084477499169e-11
4.693345698319112e-11
5.5879091791294e-11
5.915822556059259e-11
7.015202544473607e-11
6.877083544776566e-11
8.265322288555301e-11
7.40523655548404e-11
9.499436877320187e-11
8.38385520979891e-11
1.0915642894098055e-10
1.023832344959689e-10
1.2265707720141797e-10
1.2483857216212754e-10
1.3532014088093475e-10
1.5277670639665692e-10
1.423888378553977e-10
1.8489289944035068e-10
1.5788589562129637e-10
2.0425207316211897e-10
1.9127410390454924e-10
2.1450924465328762e-10
2.1830606761039297e-10
2.2422597844605283e-10
2.494248227493712e-10
2.0324351092753834e-10
2.6828501708447316e-10
2.0973273565492053e-10
2.2824137864803768e-10
2.3604251274591234e-10
1.9676164484559628e-10
2.401006661595351e-10
1.8871564907222242e-10
2.407262063547181e-10
2.1380965727524209e-10
2.1832766243855996e-10
2.6900510260876736e-10
2.1892463013863532e-10
2.824721471761222e-10
2.6576682116023336e-10
2.6456047776200173e-10
2.860514276212528e-10
2.805145124885157e-10
3.208037949294986e-10
2.422406399705229e-10
2.8585477715133095e-10
3.841081508471225e-10
3.528297264110294e-10
2.6625451585382197e-10
1.9497981562036471e-10
4.445185572231307e-10
5.8455437793287e-10
2.6689752288265893e-10
5.009201737972221e-11
2.2010371517323974e-10
6.976989802015731e-10
7.9751465618604e-10
3.1373096499201116e-10
2.5985184845309766e-10
6.887368771384572e-10
1.0684239971626654e-09
1.3868601083535528e-09
1.4783740576943151e-09
1.4480643838232843e-09
1.2449907144920115e-09
7.515825694548287e-10
6.761613064366466e-10
1.0583310436186981e-09
1.2680682419522517e-09
1.2480574781936332e-09
9.927989980918989e-10
9.236985670930514e-10
1.3385292456252005e-09
1.3540735544883194e-09
8.851054552279325e-10
7.357594740804655e-10
6.914390309178771e-10
5.288814075379108e-10
5.322403067616e-10
6.323934841441181e-10
8.064353789662211e-10
9.498294333428372e-10
9.065587879459545e-10
1.0044394337741427e-09
1.210008171890475e-09
1.2632442745605177e-09
1.4564949075649645e-09
1.7860241857127771e-09
2.1385182671679012e-09
2.7171237870234393e-09
3.0919034515781617e-09
3.156827148925485e-09
3.6946370547639563e-09
4.359817471811103e-09
4.422223897446326e-09
4.556340884868602e-09
5.019992586359734e-09
5.133187231918108e-09
5.019969452676479e-09
4.912976596092229e-09
4.533895055934173e-09
4.096724845002867e-09
3.745407837310084e-09
3.193848825098544e-09
2.6745858661760573e-09
2.356783355648779e-09
1.864883846454653e-09
1.350205330894601e-09
1.1739895476914897e-09
9.97936096366403e-10
6.212628818598458e-10
4.008111920873226e-10
4.0636139318465194e-10
3.847703035780884e-10
2.8998998218070583e-10
2.185582513175432e-10
2.16900324662933e-10
3.240306729452236e-10
5.556371512079529e-10
7.745227859737936e-10
8.867511539812804e-10
1.2346186592106028e-09
2.059655762301045e-09
2.8001109004723334e-09
3.140477308588384e-09
3.832149450659856e-09
5.172044777704724e-09
6.3616372691388066e-09
7.083091230682525e-09
7.719523974565655e-09
8.389277756254413e-09
9.198114501913607e-09
1.0067485505655825e-08
1.0298283426540647e-08
1.0046848598713516e-08
1.045368226908933e-08
1.1244030362729835e-08
1.1549958757062579e-08
1.2567393743353399e-08
1.5175532632701103e-08
1.7354135002622385e-08
1.791068474939021e-08
1.86049990812354e-08
1.9782318730299644e-08
1.9121289046025794e-08
1.6089249711751984e-08
1.2620241685173725e-08
9.578905481121628e-09
6.583616521502303e-09
4.073531672407455e-09
2.997004796050916e-09
3.8939383921237055e-09
7.076824015705124e-09
1.258540304365407e-08
2.0262250665319525e-08
2.977572209839471e-08
3.958936993760807e-08
4.7591136092533985e-08
5.388475476782469e-08
5.9794002487248e-08
6.350487365296764e-08
6.14650988651314e-08
5.440451925764837e-08
4.656386700235224e-08
3.928641965731982e-08
3.0841963798477323e-08
2.15791846544269e-08
1.401696327887308e-08
8.937613697070386e-09
5.40359570864702e-09
3.225099406887243e-09
2.7192494040428625e-09
3.572420835340911e-09
5.291251873141564e-09
7.422699353187334e-09
9.50847483407258e-09
1.2108624896333369e-08
1.642653164265636e-08
2.1734993428098598e-08
2.5593240730497244e-08
2.7626291036791815e-08
2.9829744790442624e-08
3.210784626745225e-08
3.124246866226545e-08
2.5696680299148752e-08
1.8037402063916226e-08
1.1498817445291397e-08
7.050451078976983e-09
4.492327406237354e-09
4.039442428687964e-09
6.1939748799623605e-09
1.1354964817058509e-08
1.9116214275671683e-08
2.7369466484990288e-08
3.3464567232161004e-08
3.611135192078041e-08
3.5662742173688225e-08
3.307390118700515e-08
2.8572458103448177e-08
2.1515620788394163e-08
1.2421179093785379e-08
5.049632793174477e-09
1.7324881930705276e-09
1.172187054344672e-09
2.426934031767573e-09
5.253077162138286e-09
7.830596873655407e-09
9.493312587995495e-09
1.278201873284556e-08
1.8102885235943188e-08
2.0671554566039685e-08
1.874351554023113e-08
1.7697454395924642e-08
1.9689008552522805e-08
2.0441404874098817e-08
1.7014447248429036e-08
1.2961462598566046e-08
9.98234610037249e-09
6.088810723802636e-09
2.1774113257711816e-09
1.9200259954940234e-10
3.654732854258923e-10
2.3984197687228237e-09
4.543532335617838e-09
6.4707421461876794e-09
9.181864293886686e-09
1.1066755379494044e-08
1.0453071878177821e-08
9.619816048526175e-09
9.142756165037342e-09
7.146611505492708e-09
4.808608307070169e-09
3.4645450606340037e-09
2.4377579923554717e-09
1.508091985210322e-09
1.170350958693476e-09
1.0774358278418971e-09
4.987818389910461e-10
1.3126320184212306e-10
3.964136861784367e-10
1.0685809517448723e-09
2.27104512202639e-09
2.8735101726091746e-09
3.0871944724109228e-09
3.2493306210606443e-09
2.769506112880893e-09
2.091082658478217e-09
1.4688130959492057e-09
6.960820622801213e-10
2.6500786885996006e-10
1.3823964931074526e-10
1.3686729432354786e-10
6.139509371168624e-11
5.2431051858514155e-11
3.2541937233879976e-10
7.739810715270472e-10
7.206996728490328e-10
5.502237104071979e-10
6.280597155099393e-10
6.171675385677438e-10
3.282299932216664e-10
1.1207687304713212e-10
5.623374672321099e-12
1.9773659378164238e-10
1.1800685675693437e-09
5.2697898787029516e-09
1.1264790151232921e-08
2.184466666207367e-08
3.2663229257696006e-08
3.6499837011394e-08
3.2793581129971665e-08
2.0823154955568136e-08
5.288452583955121e-09
2.1269140792510124e-09
2.0397851332133706e-08
5.413446227414736e-08
8.65920810618258e-08
8.450179731545101e-08
5.3535454375679264e-08
2.0315244801605642e-08
1.1097346163203317e-08
3.216273475840815e-08
7.091453139804883e-08
9.129179416607636e-08
8.906876035724139e-08
6.826146541975643e-08
3.805276204904023e-08
2.7285203292089658e-08
3.8618246585047544e-08
5.9472996639002534e-08
7.511618092865992e-08
6.362818534624301e-08
3.7289017498463655e-08
1.6384652898086474e-08
1.228980899119856e-08
3.2253462994597144e-08
5.02293825487242e-08
4.5555892880131024e-08
2.51000958757453e-08
7.533139073773693e-09
9.43525725733583e-09
2.6129777383977738e-08
4.233089545472653e-08
5.736023705907598e-08
5.290044039804488e-08
4.8764122759397435e-08
4.1546714233782175e-08
3.741706265188258e-08
4.7361248431260435e-08
7.726582244302048e-08
1.2907540356806406e-07
1.7985396069124035e-07
1.9074884598422267e-07
1.5131835108527862e-07
8.71051247020536e-08
5.432249706473748e-08
9.336221857682154e-08
1.748216520755479e-07
2.5092697677742804e-07
2.584906086309231e-07
2.088020269580619e-07
1.3124391179534133e-07
8.313235937079083e-08
8.554352455832948e-08
1.1952063949679212e-07
1.5658302361302596e-07
1.6049337621744627e-07
1.372363141642122e-07
1.1367197759051824e-07
1.0828879804450058e-07
1.2147674315495072e-07
1.310285902400838e-07
1.2138415831015595e-07
9.390364738969636e-08
6.572601524316991e-08
5.7375387643811615e-08
7.018506484693489e-08
9.306282467026902e-08
1.0310628844721903e-07
9.646446432629067e-08
7.333176751590048e-08
5.980833549296759e-08
6.078924230403892e-08
6.814338181231016e-08
6.495673251538369e-08
3.973724491791963e-08
1.2561790293262602e-08
7.529954403982233e-09
3.125914127704012e-08
5.982270527336584e-08
6.805125707730434e-08
5.380158628666542e-08
2.9300320052743164e-08
1.0246922309672151e-08
1.1927984122666376e-09
9.489176095829878e-10
6.255093199091327e-09
1.2138943214630956e-08
1.3800269931377895e-08
1.2805726641940148e-08
1.0513608214712812e-08
1.1844811936417458e-08
1.4898107780335063e-08
1.2033584285177759e-08
5.552440236586294e-09
3.1539531647148834e-09
5.519018286532797e-09
7.508538850236505e-09
5.230285827264654e-09
3.153829419978371e-09
3.2268585202726898e-09
5.758049632447708e-09
1.1130945133555933e-08
1.479512061169785e-08
1.218604351326615e-08
8.166646707677931e-09
5.817017867398326e-09
4.9615543282535626e-09
3.991784407680351e-09
8.30864404340351e-09
1.4518840017075621e-08
1.6010459086834334e-08
6.799327124503405e-09
1.4784047810605905e-27
1.3379638544031707e-28
1.1499914607195606e-29
2.47802612510042e-30
1.0282732717010188e-12
1.478042042553815e-12
4.187986256963887e-12
9.498701230511968e-12
2.0102608416230864e-11
3.044574179814818e-11
4.4277496865205876e-11
5.1216829181172416e-11
6.312940094171078e-11
7.237639125601914e-11
8.847054762913455e-11
1.0498121038043115e-10
1.2353618229771176e-10
1.4199441742714583e-10
1.6447432718481875e-10
1.8264229636463932e-10
2.0993578078638473e-10
2.2218408359641075e-10
2.444321285908902e-10
2.523106964995258e-10
2.634841221592533e-10
2.8925587008762293e-10
2.9550348483674213e-10
3.4611182448697123e-10
3.4789774727036836e-10
4.037351590510529e-10
4.0695725166290193e-10
4.5857290380244205e-10
4.769019369847429e-10
5.106377517633697e-10
5.648670718655283e-10
5.730548081991563e-10
6.462214945047656e-10
6.595566047061052e-10
7.296560060867667e-10
7.26963401734311e-10
8.04821836645252e-10
7.970644160430796e-10
7.924406796157161e-10
8.740428532922546e-10
7.714230047842705e-10
8.430390897497706e-10
8.080054914445277e-10
7.817983894134065e-10
8.28862787727071e-10
7.807443606534429e-10
8.540661678341166e-10
8.372025711198542e-10
9.057621577603043e-10
9.727216445949771e-10
9.734673332022166e-10
1.1148747770086172e-09
1.1654229194544772e-09
1.1448181685543198e-09
1.2383254663815765e-09
1.398081701897371e-09
1.3048562514113505e-09
1.1691039280383666e-09
1.323354111095935e-09
1.5627020906707182e-09
1.5590085201783776e-09
9.9462732249822e-10
9.760024461503466e-10
1.9466454458190746e-09
2.0376167262422582e-09
1.0350672091521124e-09
4.795145540431406e-10
1.4540038328859693e-09
3.0712270659784252e-09
2.763627875122578e-09
1.457980650714826e-09
1.953741704463343e-09
3.404439789683796e-09
4.1139026577087485e-09
4.137628343905798e-09
4.327905013963347e-09
4.754628549600833e-09
4.076179884877814e-09
2.976301519463472e-09
3.3974488207485035e-09
4.626391927218237e-09
5.4026062840810264e-09
5.052434669921166e-09
3.727887948700728e-09
3.759110904689044e-09
4.941375789907967e-09
4.325481184275986e-09
2.9162751197429126e-09
2.8351792997166653e-09
2.930150105286238e-09
2.583953255747109e-09
2.4622017141259264e-09
2.7646934622462367e-09
3.4915543540649915e-09
3.766855329179475e-09
3.447136180825204e-09
3.837465484917714e-09
4.56656785677172e-09
4.903596871740548e-09
5.553645923414747e-09
6.250815111975837e-09
7.118685430064243e-09
8.923784260434486e-09
9.875758616347755e-09
9.632282150614244e-09
1.0966986669213513e-08
1.2869819466537514e-08
1.2858432893849728e-08
1.3094801972532e-08
1.4708569014400632e-08
1.530883197949717e-08
1.4854854952827137e-08
1.4488571353940531e-08
1.3573431562227345e-08
1.2298856625762736e-08
1.1149883845127581e-08
9.494728633891067e-09
7.792547434752452e-09
6.6436217547350176e-09
5.235277739944279e-09
3.799715154690203e-09
3.2079946296408638e-09
2.6219911201541393e-09
1.5285337261067084e-09
9.346465740473088e-10
9.70147268571278e-10
8.187386792938025e-10
4.41484200477329e-10
2.303264867559255e-10
2.4777551798508997e-10
4.828672639261582e-10
9.931195987943973e-10
1.6522359445207013e-09
2.2993655990524538e-09
3.535515114258335e-09
6.1309857651856026e-09
9.065451574973446e-09
1.0962463796118716e-08
1.3356343493699398e-08
1.815453461964137e-08
2.339420728308629e-08
2.642459506627917e-08
2.8384156420449415e-08
3.151570882386398e-08
3.5378665019112304e-08
3.799524613659458e-08
3.8621566003732465e-08
3.881783718845586e-08
4.047972116250607e-08
4.2929645385281007e-08
4.53096704028068e-08
5.049219941422738e-08
6.02566055035978e-08
7.000074585805283e-08
7.597132039642534e-08
8.139490206968865e-08
8.757770851464395e-08
8.795678640254106e-08
7.841234049872691e-08
6.393335506890868e-08
4.981906367074771e-08
3.5685710270189375e-08
2.1406313402821692e-08
1.0805504266646863e-08
7.65153950974351e-09
1.3793733921167576e-08
3.127682178100065e-08
6.121661937865124e-08
9.997719738693566e-08
1.4034330595620797e-07
1.781277614487829e-07
2.1423232490207288e-07
2.470038210616658e-07
2.6664859630145057e-07
2.639199741415227e-07
2.419997198681973e-07
2.1226236724944573e-07
1.802683919415418e-07
1.4413098301029134e-07
1.0504550230379662e-07
7.035619284536838e-08
4.540186126127978e-08
2.8973542921297386e-08
1.822758619567811e-08
1.358121031405961e-08
1.6665681173653595e-08
2.565836137121848e-08
3.5818288079139826e-08
4.568470646163698e-08
5.955923473043873e-08
8.011223966151211e-08
1.0144265049543106e-07
1.1554841244665893e-07
1.2345125710469694e-07
1.3187474083533451e-07
1.3961210778248944e-07
1.3620341944474881e-07
1.1595508171830858e-07
8.595304485093651e-08
5.787183484496912e-08
3.749657700627731e-08
2.4661801335117815e-08
1.9420831450843296e-08
2.5198712474530688e-08
4.6044658350517814e-08
8.048626769249356e-08
1.1871723752423663e-07
1.4851739339348106e-07
1.6403171521686857e-07
1.6676490745718117e-07
1.5852219394701694e-07
1.3736019928701326e-07
1.0285033480686169e-07
6.283196884766841e-08
3.029996299847698e-08
1.2340564134857842e-08
7.142358191557571e-09
1.0340925227560562e-08
1.8346111746820698e-08
2.82997525399766e-08
3.973578021706541e-08
5.420589439366782e-08
7.045813953851698e-08
8.284828863527198e-08
8.81228362427825e-08
8.951804018508835e-08
9.092998364394028e-08
9.136341377751949e-08
8.653413111781803e-08
7.38009012653255e-08
5.454719899042153e-08
3.333314474975988e-08
1.476131316823722e-08
2.6766914805347166e-09
4.418363820738418e-10
6.500194938773111e-09
1.569849685610974e-08
2.5779413263549806e-08
3.568198553189805e-08
4.307136767231631e-08
4.657265782424425e-08
4.6109707806779476e-08
4.087890889039947e-08
3.250564403959879e-08
2.4692865893977768e-08
1.8406052836412345e-08
1.3178305209704118e-08
9.535785897178187e-09
7.403544703802937e-09
5.198184478526975e-09
2.3136355517976158e-09
6.004707703321095e-10
1.1612426400736536e-09
3.6021811358372096e-09
7.034008127649575e-09
1.0490551609178327e-08
1.3140654826446985e-08
1.3586628596690217e-08
1.1964021159119699e-08
9.481672577190751e-09
6.2634942135412104e-09
3.357324848510726e-09
1.849791388015279e-09
1.3158041149690843e-09
9.45533047167002e-10
5.83340820728948e-10
5.501261954670188e-10
1.155920871103539e-09
2.2441590676367144e-09
2.7500761174871214e-09
2.665447416663922e-09
2.545845240272666e-09
2.299467384535901e-09
1.5501554568591584e-09
5.094633265556903e-10
6.318823736966915e-11
2.0397540820567305e-10
7.792642020875362e-10
3.726734715434088e-09
1.072166876967823e-08
2.4519045423294446e-08
4.3643055826784085e-08
5.6121708841502164e-08
5.190268370160859e-08
3.429897715390785e-08
8.223277614153326e-09
2.250993542916234e-09
3.311418460116581e-08
8.830238329863828e-08
1.3909237120172114e-07
1.363685911604889e-07
8.306843011897381e-08
3.125944719084569e-08
2.1834605794005955e-08
5.958722429046203e-08
1.2039240809828002e-07
1.4981432816017514e-07
1.3981579778637434e-07
1.0364084488225885e-07
5.6759755381988054e-08
4.4824559140931335e-08
6.580605494492902e-08
9.751570620582325e-08
1.1715464093303482e-07
9.297342944661906e-08
5.082943821256756e-08
2.4350748748836838e-08
2.6435453995916706e-08
5.924910150324155e-08
7.992064028402335e-08
6.387447437585595e-08
3.4375274297076884e-08
1.778673463711657e-08
3.553763399073664e-08
6.854463173091159e-08
8.565203731653658e-08
1.0228967401422693e-07
9.581099441120171e-08
1.0624529966827087e-07
1.06451597840073e-07
1.057616319734733e-07
1.1883172466391043e-07
1.6044862028600987e-07
2.3689501962570003e-07
3.1135628272777644e-07
3.3288246146312043e-07
2.7335145352072586e-07
1.834002957662937e-07
1.4462414179498954e-07
2.1387913205846185e-07
3.34621732986382e-07
4.389232523527358e-07
4.2591924786437305e-07
3.33456362251942e-07
2.2391476313020685e-07
1.724537906429922e-07
2.0232935156783941e-07
2.6215789631934715e-07
3.013252940922216e-07
2.8562587499065645e-07
2.3166014869876103e-07
1.9124337570623998e-07
1.8978426841522102e-07
2.2051053288569463e-07
2.337239570399078e-07
2.098011752492416e-07
1.63033421634388e-07
1.2012215161668082e-07
1.2018335121931826e-07
1.4248733170075598e-07
1.77534984553815e-07
1.8131121841837276e-07
1.572706596639034e-07
1.1703341681310311e-07
9.865520073165225e-08
1.089734905336e-07
1.2725818868448326e-07
1.1758247675609292e-07
7.33820960470241e-08
3.1031691450306194e-08
2.905217047212726e-08
7.366786648175124e-08
1.1129249251759203e-07
1.0741252136141282e-07
7.412407242526092e-08
3.3956546023396173e-08
1.1265310729369645e-08
5.3000015001490935e-09
1.2176944275493783e-08
2.4429077898656427e-08
3.689655491234297e-08
3.755078708087768e-08
3.1621657712443286e-08
2.467005493174206e-08
2.6620914742427836e-08
2.9255717985590398e-08
1.7237458705211062e-08
2.5641947109632714e-09
2.262307220591582e-09
1.5186712498257258e-08
2.058142047473501e-08
1.4774711697058498e-08
8.439449160395649e-09
1.0044115555018546e-08
1.5715850282042256e-08
2.4896194561823113e-08
2.7904536452513805e-08
1.9105988322842232e-08
1.3251356995014224e-08
1.2317902521039453e-08
6.916820438039968e-09
1.3356611635905093e-09
9.931144678741638e-09
2.576089668896175e-08
3.283352936588224e-08
1.4712500616110433e-08
3.56922177001331e-27
3.2424128890290763e-28
2.815267163962729e-29
4.061733643401738e-30
1.4743930414429814e-12
8.510523481086754e-13
2.3472751807628063e-12
6.8252459599384065e-12
1.7043077051039363e-11
2.6291912317408523e-11
4.0130563507524384e-11