# vtk DataFile Version 4.1 
COMMENT
ASCII
DATASET STRUCTURED_POINTS 
DIMENSIONS 400 400 1 
ORIGIN 0 0 0
SPACING 0.002506265664160401 0.002506265664160401 0 
POINT_DATA 160000
SCALARS U double 1
LOOKUP_TABLE default
1.2242514277565607e-06
1.0788385554251097e-09
3.911357912337164e-09
6.436355342135612e-09
7.100964346015678e-09
5.864489980235011e-09
3.3307618578770742e-09
1.3336886552022894e-09
3.3788198808429183e-10
5.953815153747105e-11
8.168508467559232e-11
1.7169503387847422e-10
4.3815281620474695e-10
9.045240588277443e-10
1.709126260096999e-09
3.379966656568595e-09
5.835262057197472e-09
9.089341199174635e-09
1.2203931923994378e-08
1.2716200300051992e-08
1.0623540036040223e-08
6.599365403470009e-09
2.389918276844821e-09
2.0770007383696326e-10
5.193910754952099e-10
2.2346725383130357e-09
3.833923557377107e-09
3.989604121875819e-09
3.064105957658944e-09
1.3932434992385256e-09
3.20023961089085e-10
1.611827835285339e-11
1.7927599695628563e-10
6.026588784230535e-10
1.4494655551399808e-09
3.450676930106362e-09
7.161336135039083e-09
1.1599386081977747e-08
1.4675478348474438e-08
1.369847239569232e-08
9.266008900066493e-09
3.5315552324091385e-09
8.089070496371961e-10
2.345209510211406e-09
6.692499353067563e-09
9.37975745778219e-09
8.393647188743054e-09
4.335931780629202e-09
8.269040532945572e-10
4.619614744320321e-10
2.943866538690301e-09
5.580618060112393e-09
5.934800604563993e-09
3.651018616916144e-09
1.1346923146699436e-09
3.446554356592915e-10
1.7350090854982427e-09
3.8141307192852666e-09
4.240233490187958e-09
2.5276726348013957e-09
5.634284937774727e-10
8.589852716311961e-11
1.1880462159394839e-09
2.093308195025448e-09
1.6112910272675416e-09
7.434494214486456e-10
1.308207165484673e-09
4.107183687046619e-09
7.3970249811092095e-09
9.18003033747682e-09
8.336392055630909e-09
6.3803144281734615e-09
4.347771760650988e-09
3.1458331765488972e-09
2.326045861197203e-09
2.033222931460611e-09
1.8006421220858532e-09
1.8461292975984152e-09
1.834966464500838e-09
2.000123603967274e-09
2.0442168568204317e-09
1.9275246065198572e-09
2.271385157638426e-09
3.4392615519659027e-09
5.408460767577523e-09
6.759355039823697e-09
6.22086567233692e-09
3.999016383997043e-09
1.4797634040499746e-09
7.8494408526948e-10
1.4163270762499585e-09
2.5364496919546538e-09
3.6062842077292875e-09
5.180054475340809e-09
7.094282961342281e-09
8.283349389415957e-09
7.74569741480687e-09
6.340825459127791e-09
5.0997968699426636e-09
4.3331866539646525e-09
3.78101469659781e-09
3.4391762920408435e-09
3.6155412128820965e-09
3.86130614505606e-09
3.756218936398498e-09
2.6714369968939896e-09
1.7995688758073155e-09
2.16145703854273e-09
3.238685861815441e-09
3.479123268755045e-09
2.098689182761326e-09
4.176800969395161e-10
5.360222943490491e-11
9.044585835001688e-10
1.7719950336013532e-09
1.8162622958528684e-09
1.5843464269613206e-09
1.2640093889250859e-09
8.715928408458582e-10
3.4743831228078584e-10
1.1056442916262427e-28
1.0984052507643989e-29
2.3253277473778484e-31
4.460242053935305e-30
1.1780884656279414e-11
3.159706554717713e-11
5.429312506829137e-11
7.36898522006768e-11
7.701337874121618e-11
5.615127764606421e-11
2.0807180889697968e-11
8.266497846762861e-12
7.642599630159276e-11
1.9040217971371127e-10
2.2583099620900452e-10
1.5752164305398947e-10
9.37321898723768e-11
1.783967635148285e-10
3.694673642610431e-10
4.577621634706159e-10
3.4923362852701667e-10
1.6407800477051342e-10
7.728562700906881e-11
1.3411237798186593e-10
2.127052296462258e-10
2.784539178463644e-10
2.5288037501449936e-10
1.010290500372201e-10
1.322690102936899e-11
5.130866307694708e-11
1.3567652090187975e-10
1.6733013512112092e-10
1.7092838670557652e-10
2.275585784967251e-10
3.2086878041299535e-10
3.984680379388978e-10
4.429120435289285e-10
5.23186987471114e-10
7.066448854314481e-10
8.3265667609893e-10
9.10639690589015e-10
7.859434654529122e-10
4.6496213375936785e-10
2.0465902495557887e-10
2.9543198663890234e-10
5.474208276673469e-10
5.129454947143521e-10
2.245846399931302e-10
8.948715824095162e-11
4.84102899964936e-10
1.107260794412146e-09
1.382725827182563e-09
8.951242683114538e-10
2.584736730689159e-10
1.8875705029804658e-10
1.050474013468284e-09
2.0118372850791973e-09
2.160265223524081e-09
1.2343643403173503e-09
2.340548447663671e-10
1.9054034397509161e-10
9.677221474583851e-10
1.6882618064511856e-09
1.8838112706743797e-09
1.7443108485237589e-09
1.621068841146228e-09
1.7460394928580274e-09
2.10593573486464e-09
2.486692159246914e-09
2.503226080876903e-09
2.7596077389019798e-09
2.8925543356712052e-09
2.5364003169623995e-09
1.81162313957006e-09
1.2888915157767219e-09
1.3564942994280957e-09
1.225923948905908e-09
1.1745351965083915e-09
1.2660220242752462e-09
1.9670576803876946e-09
3.5121628119940313e-09
4.452592137033781e-09
4.242174543357566e-09
3.5611413382837724e-09
4.03355648043205e-09
5.770346519433844e-09
7.082277770529654e-09
6.322226778646932e-09
4.100519368481235e-09
2.6103712023097752e-09
3.0788830864398617e-09
3.998870683651136e-09
3.560329664905741e-09
1.4859805040395088e-09
5.608722057238526e-10
2.9187088595778323e-09
6.619669233922092e-09
7.652814172340016e-09
5.420473235552343e-09
3.0755725299186198e-09
4.176118234704062e-09
7.837416528607394e-09
1.0410724454571535e-08
9.266548952989947e-09
6.115460026234847e-09
3.905192514967369e-09
3.959436357937403e-09
4.297682982511445e-09
3.100024275495862e-09
1.1797954020300753e-09
8.418330711646924e-10
2.435065962807659e-09
4.0616874697098635e-09
3.739356308557723e-09
2.194538131875659e-09
2.0983882236836017e-09
4.276805267352003e-09
7.015525559728705e-09
7.078701839520037e-09
4.901312932428273e-09
2.945473174705638e-09
2.9353688478745483e-09
3.752923383118141e-09
3.4142517092844646e-09
1.439723984188426e-09
6.213542351558619e-11
6.574808394788907e-10
2.152013015663685e-09
2.4794231305637573e-09
1.225886823933096e-09
3.894557399828294e-10
1.5672012573471416e-09
3.902765008343492e-09
5.154655798333884e-09
4.3136927607828356e-09
2.755431910203609e-09
1.9598347063060615e-09
2.130445953837967e-09
1.9648609588453153e-09
1.0487897162182604e-09
1.1059330550045102e-10
1.5398165990384258e-10
7.408415571635941e-10
7.509765605308773e-10
2.594957263759925e-10
1.7958897517771573e-10
1.3342595698272442e-09
2.825961711434586e-09
3.6708320033229624e-09
3.454226402032948e-09
3.0710628549851665e-09
2.8349487663729136e-09
2.8448203536103003e-09
2.2090523824458145e-09
1.1427636712125309e-09
4.1463730919424635e-10
5.765056942184665e-10
9.76173340559158e-10
9.512701843390257e-10
4.711356132790507e-10
2.521660312738235e-10
5.896454242226692e-10
1.0420214544069866e-09
1.0946933091856022e-09
9.506609479766256e-10
1.0570622712976742e-09
1.4102093870575914e-09
1.4779198423216457e-09
9.777487825084736e-10
3.44086445970793e-10
3.8243609127745507e-10
1.1985031779489319e-09
2.139158977054966e-09
2.2398278676921495e-09
1.5039446687096504e-09
8.348005361044816e-10
4.675413831319454e-10
3.2755026132947424e-10
1.6967800777911506e-10
1.773252635307311e-11
5.4951759118105955e-11
2.0629429882473682e-10
2.417126839587564e-10
1.7598874315694533e-10
3.853080048318341e-10
8.871310998367456e-10
1.4441088481058206e-09
1.3927685925130424e-09
8.687809009025855e-10
3.058951396765101e-10
1.594667212810439e-10
3.905360458961546e-10
5.481937910361297e-10
3.5127936764259935e-10
9.60236319789918e-11
2.8605841700686352e-11
6.493125678206421e-11
6.097595016299375e-11
8.667466411911515e-11
5.536224316506826e-10
1.5612873352139785e-09
2.4932239070949223e-09
2.3901320838659866e-09
1.3902780726974965e-09
3.241826539435631e-10
2.400857182006222e-10
1.1125089148922067e-09
2.0634709826555946e-09
1.9733570858302015e-09
1.127209252923192e-09
2.970059062926515e-10
1.6065053094616195e-12
1.4714466684736538e-10
1.690856097548142e-10
2.4384838051026987e-11
1.1015982441398278e-10
6.49686443434152e-10
1.3886195540730857e-09
1.6287108992684761e-09
1.2181457942233998e-09
5.809816733878558e-10
4.883659852335507e-10
1.1701761652536867e-09
2.2394715236017773e-09
2.8210939794487997e-09
2.285056393478887e-09
1.2479058993865974e-09
3.647054928620439e-10
2.727106032058845e-11
1.1106886490142424e-10
2.7326502225050127e-10
3.6290072102770937e-10
4.726206645011662e-10
6.503713893595182e-10
8.973127987104135e-10
9.040935624574206e-10
5.83863767161813e-10
1.9819051915152272e-10
1.0839241595283696e-10
4.5099889813994693e-10
9.912959284817041e-10
1.2724078852470703e-09
1.242220963707887e-09
9.209507757362971e-10
5.051899892199021e-10
3.0069455624251363e-10
3.655485598723584e-10
6.860711988921858e-10
1.1087063141560884e-09
1.472069315511697e-09
1.4767554142825241e-09
1.122440620337423e-09
6.495237393685527e-10
2.439809766459931e-10
1.0656065978429921e-10
3.865413018849053e-10
1.0465029372854661e-09
1.7873731027334975e-09
2.179295047906106e-09
1.967573603514632e-09
1.1598917285673028e-09
3.1266032132764527e-10
3.697284504998692e-11
3.7055901961079176e-10
9.431514762694382e-10
1.3213627360895885e-09
1.3133816378718886e-09
1.0798357613361372e-09
7.803655821808398e-10
4.110727129006818e-10
1.2848316257920348e-10
3.4345103062451206e-11
2.347415353687437e-10
6.694909608044417e-10
1.1029413672936545e-09
1.3259137897824512e-09
1.1404607498406501e-09
6.505269845340437e-10
1.7438423978929444e-10
6.920771769623331e-31
1.0716891426113638e-09
6.810591918793872e-09
2.4691982368740217e-08
4.0632019924762056e-08
4.482762517841343e-08
3.7021895321026826e-08
2.1026741840669384e-08
8.419433224398066e-09
2.1330126977582126e-09
3.75857955466974e-10
5.156691654928538e-10
1.0838923065453515e-09
2.766011665262527e-09
5.710163225469287e-09
1.0789530497107872e-08
2.1337366449559357e-08
3.683738258235839e-08
5.7380034674294884e-08
7.704211137162721e-08
8.02760066052443e-08
6.706526713807392e-08
4.166108493251818e-08
1.508729737272261e-08
1.3111882563832866e-09
3.2788600700940476e-09
1.4107247700827885e-08
2.420314760335664e-08
2.5185942284874484e-08
1.934337178498141e-08
8.795396557816744e-09
2.0202768915270076e-09
1.0175295992416344e-10
1.131750112159345e-09
3.804520765908381e-09
9.150320357726316e-09
2.1783752811179765e-08
4.5208745797785366e-08
7.322567840723753e-08
9.264471847242272e-08
8.647698483593856e-08
5.849531889356518e-08
2.2294328846212182e-08
5.106543316987445e-09
1.4805055731281847e-08
4.224902955250307e-08
5.921340132031689e-08
5.29881931132268e-08
2.7372271594389362e-08
5.220156467958889e-09
2.9163131672849315e-09
1.858431324834463e-08
3.522984238091127e-08
3.746575874011981e-08
2.304848836064905e-08
7.163190701470149e-09
2.175772744740858e-09
1.095292599370634e-08
2.4078197542496838e-08
2.6768138566102565e-08
1.5956925837852878e-08
3.5568635615057373e-09
5.422681753368696e-10
7.50000814926638e-09
1.3214829786063357e-08
1.0171907181060304e-08
4.693316341252704e-09
8.258571316861548e-09
2.592820945018915e-08
4.6696624166910314e-08
5.795254546317734e-08
5.26267476078524e-08
4.027823965445828e-08
2.7447016116495614e-08
1.9859306939243747e-08
1.4684077673485875e-08
1.2835517971134725e-08
1.1367260303823155e-08
1.1654415956906524e-08
1.1583946190598206e-08
1.262656547197714e-08
1.2904921441037524e-08
1.2168255799189192e-08
1.4339010523205637e-08
2.1711688755142435e-08
3.4143031885120806e-08
4.267108232180488e-08
3.927165678577856e-08
2.5245360884643696e-08
9.3415874235033e-09
4.955267696875032e-09
8.941120700006838e-09
1.6012334456888763e-08
2.2766084840522752e-08
3.2701127496103055e-08
4.478544631463983e-08
5.229189495352498e-08
4.889775578878839e-08
4.002895003451328e-08
3.219446985395848e-08
2.7354941904619154e-08
2.3869139648372058e-08
2.1711150518393583e-08
2.2824523319727e-08
2.437601093811988e-08
2.3712606677628107e-08
1.6864494813539465e-08
1.1360485015347667e-08
1.3645046115096078e-08
2.0445475967718497e-08
2.19633314915539e-08
1.3248799383650332e-08
2.6367695875833747e-09
3.383851168304305e-10
5.709749886759226e-09
1.1186414311298695e-08
1.1465868782999977e-08
1.0001808813535455e-08
7.979555500869716e-09
5.502271983600297e-09
2.1933407459344024e-09
6.979813652139154e-28
6.93411436474757e-29
1.4679544298079263e-30
2.815702899719463e-29
7.43714594114439e-11
1.994688808543821e-10
3.4274666675262213e-10
4.6519612167298276e-10
4.861771877324689e-10
3.544769843858096e-10
1.3135349798878822e-10
5.2185512974835735e-11
4.824691054838099e-10
1.2019885088070146e-09
1.4256468218158559e-09
9.944172126809996e-10
5.917212465808807e-10
1.126199605884788e-09
2.3324077848726892e-09
2.8898033682473395e-09
2.2046743845560215e-09
1.0358068199569952e-09
4.878958618043385e-10
8.46637036746997e-10
1.3427852673868799e-09
1.757849673711062e-09
1.5964066447520184e-09
6.377855410217373e-10
8.350000545337403e-11
3.2390607877216415e-10
8.565113029912979e-10
1.0563371695383413e-09
1.0790525452909475e-09
1.4365528632329282e-09
2.025610145174025e-09
2.5154859227430467e-09
2.796056156155794e-09
3.3028232546665144e-09
4.460973258672648e-09
5.2564721578147185e-09
5.7487705518780254e-09
4.96157667662632e-09
2.9352560073076932e-09
1.29199044144419e-09
1.8650303983280296e-09
3.4558088847886874e-09
3.2381698109655675e-09
1.4177787089002697e-09
5.649228178645319e-10
3.056089608390664e-09
6.990018460592672e-09
8.728999623865277e-09
5.650823357602424e-09
1.6317165345749716e-09
1.191602983514696e-09
6.63152961214937e-09
1.2700512682631623e-08
1.3637522314900121e-08
7.792409493281455e-09
1.4775630944078076e-09
1.2028607249484296e-09
6.109125970679536e-09
1.0657815442361578e-08
1.189229820539017e-08
1.10116470245534e-08
1.023363346980924e-08
1.1022559770556249e-08
1.3294546088702505e-08
1.5698220497525375e-08
1.5802597368812482e-08
1.742110723712593e-08
1.826038482229792e-08
1.6012022757866184e-08
1.1436582287693671e-08
8.136633695012845e-09
8.563402806766173e-09
7.739126208911279e-09
7.41471453486102e-09
7.992261051651484e-09
1.2417823848139088e-08
2.2171906579135396e-08
2.8108735893498103e-08
2.678039222626737e-08
2.2481102754657606e-08
2.546340880337228e-08
3.642757776524846e-08
4.470965883455681e-08
3.991153856238318e-08
2.5886138322922297e-08
1.6478993011607583e-08
1.9436658211715234e-08
2.524444109401013e-08
2.24759787478066e-08
9.380835307938029e-09
3.540725989602558e-09
1.8425495522376856e-08
4.178926083326085e-08
4.8311393855990345e-08
3.421886530514708e-08
1.9415759023994424e-08
2.636338584506362e-08
4.9476768702358826e-08
6.572178523148505e-08
5.849872818966206e-08
3.860624226390402e-08
2.4653060877390352e-08
2.4995496431550223e-08
2.713081104030142e-08
1.957012026738098e-08
7.4479216473034025e-09
5.314401754198041e-09
1.5372309864744267e-08
2.564099671704087e-08
2.360615471933974e-08
1.3853883503957596e-08
1.3246899461319662e-08
2.6999012267044054e-08
4.428825929784538e-08
4.4687084366195645e-08
3.0941462076244004e-08
1.8594455768935395e-08
1.8530668238989773e-08
2.369180220375547e-08
2.1553804304684136e-08
9.088822866683391e-09
3.922542544832719e-10
4.150605917446362e-09
1.3585427013074285e-08
1.5652331900238928e-08
7.738891842945632e-09
2.4585922537870125e-09
9.893573199380316e-09
2.4637736288820302e-08
3.254078837631394e-08
2.723187905086566e-08
1.7394745679092637e-08
1.2372225988605192e-08
1.344927646835772e-08
1.2403956180999156e-08
6.620896824525889e-09
6.981636584329131e-10
9.720696792953798e-10
4.676853174140471e-09
4.740834361764016e-09
1.6381686473204308e-09
1.1337259100532108e-09
8.423037347101582e-09
1.7839992738425397e-08
2.3173568140814163e-08
2.1806160246191822e-08
1.9387289930538583e-08
1.789672705092186e-08
1.795904532081177e-08
1.3945510408783496e-08
7.214144308352497e-09
2.6175607953833462e-09
3.639418523224531e-09
6.162477444954209e-09
6.005266494666602e-09
2.9742285204016702e-09
1.591897069447147e-09
3.722368227359358e-09
6.578169514712625e-09
6.910681276272507e-09
6.001420450950857e-09
6.673120576159822e-09
8.902500385256587e-09
9.3299492163354e-09
6.172423040756826e-09
2.1721807739544235e-09
2.414277965513587e-09
7.566021827215271e-09
1.3504280848032098e-08
1.4139792741447309e-08
9.4942411499105e-09
5.2700061157506964e-09
2.9515385315511007e-09
2.067789616519871e-09
1.0711590374355183e-09
1.119435341578526e-10
3.469045527630477e-10
1.3023137497300279e-09
1.525906210675616e-09
1.1109980320188746e-09
2.4324080473006823e-09
5.600363343594163e-09
9.11650404160122e-09
8.792398522670069e-09
5.484520508778153e-09
1.931083159572695e-09
1.0066962826011309e-09
2.465412108978616e-09
3.4606885195092714e-09
2.2175889158531154e-09
6.061868744685925e-10
1.8058560600869755e-10
4.0990404958488184e-10
3.849346237512098e-10
5.471678445726411e-10
3.494958944600763e-09
9.856239244187524e-09
1.5739454720093286e-08
1.5088647113481517e-08
8.776676138589474e-09
2.0465302728184216e-09
1.5156353506022678e-09
7.023149281465379e-09
1.3026470669285791e-08
1.245759131805774e-08
7.115950936443233e-09
1.8749663840422495e-09
1.0141695458601239e-11
9.289084765137963e-10
1.0674192923395306e-09
1.539388633603114e-10
6.954271388956716e-10
4.101400732437694e-09
8.766206088660514e-09
1.0281876961876344e-08
7.690023553877836e-09
3.6676748989412125e-09
3.0830020077793897e-09
7.387196438767984e-09
1.413754317948088e-08
1.780926326925826e-08
1.4425315566593962e-08
7.877895901142124e-09
2.302346602219109e-09
1.721592745294067e-10
7.011658138498546e-10
1.7250927331707558e-09
2.290953271485446e-09
2.983603489252638e-09
4.105724722492232e-09
5.6646393149337945e-09
5.707445548124467e-09
3.6858692473610134e-09
1.2511554591067104e-09
6.842696791236255e-10
2.8471076006794467e-09
6.257944718142234e-09
8.032574306040235e-09
7.842007512840102e-09
5.81386332486518e-09
3.1892101378235093e-09
1.8982524349656814e-09
2.3076687936986185e-09
4.331093785437763e-09
6.999143871468141e-09
9.293015469008558e-09
9.322598307199478e-09
7.085847071143816e-09
4.100373599148146e-09
1.5402256987653476e-09
6.72705999186614e-10
2.4401937191242205e-09
6.606460634753619e-09
1.1283494409920832e-08
1.375765555216769e-08
1.2421080815422448e-08
7.322271894652081e-09
1.973791024665854e-09
2.334055994254266e-10
2.339299287837354e-09
5.954013962680487e-09
8.341621021007183e-09
8.291237205234904e-09
6.816887172597019e-09
4.9263640986685535e-09
2.5950578818671088e-09
8.111004045625679e-10
2.1681694651254092e-10
1.4818980984209116e-09
4.226424523327853e-09
6.962750381157539e-09
8.37035133412655e-09
7.199606213096185e-09
4.106706978116021e-09
1.100868974603889e-09
1.7813885073670666e-10
3.645416635052044e-09
2.235062406531404e-08
8.159393017822414e-08
1.341028907759995e-07
1.4300734099960488e-07
1.1293700007870825e-07
5.864947376569681e-08
1.941988813135892e-08
3.0682731373714567e-09
4.463798813059762e-10
9.334263167971344e-10
1.8216649821115474e-09
6.093771230116015e-09
1.3447329268907437e-08
2.581988242305076e-08
5.3242253553227254e-08
9.820599063064192e-08
1.649891147229384e-07
2.33835852051961e-07
2.5326373482515453e-07
2.159325627057468e-07
1.3180724459190622e-07
4.6293164675388837e-08
2.325945319567421e-09
1.3199087915186968e-08
5.2892111540440836e-08
8.398087319575484e-08
8.484031620997218e-08
6.131073327477918e-08
2.748182794552611e-08
6.20174803762255e-09
2.031190488774102e-09
7.134164618072196e-09
1.4958118266215853e-08
3.0545638465282204e-08
6.712433657734553e-08
1.422545146469474e-07
2.3379482306435323e-07
3.016722123913161e-07
2.9061721693069487e-07
2.0118050424465033e-07
8.222333157393414e-08
2.459068042483621e-08
5.577240125686431e-08
1.483227962568214e-07
2.0321991434412277e-07
1.8326875570451696e-07
9.518393268951992e-08
2.0376460033407897e-08
1.3221269288757093e-08
6.86427598357056e-08
1.2684425478971382e-07
1.3154193824094012e-07
8.230844348365048e-08
2.600541140029389e-08
1.0077443781946956e-08
4.3932564125436474e-08
8.966532078393247e-08
9.911748414704452e-08
5.621312384042331e-08
1.092062252747506e-08
2.386312071218169e-09
3.140752522465017e-08
5.451611164885245e-08
4.0131470250725393e-08
1.8433380825468202e-08
2.7339140035095946e-08
8.820967716911896e-08
1.537226969481112e-07
1.840374309062639e-07
1.5784117759967063e-07
1.1446774542534992e-07
7.272919009059259e-08
5.1550976355031526e-08
3.7681886206430535e-08
3.467505269070415e-08
3.2764547688370594e-08
3.5909473664281945e-08
3.690549043823289e-08
4.174854409203063e-08
4.450258665630793e-08
4.163837406913997e-08
4.82961596715026e-08
7.184134160219062e-08
1.1607848385417103e-07
1.4342873414042697e-07
1.2997108342143992e-07
7.746299862844085e-08
2.3493387404370616e-08
1.020360946849739e-08
2.387200080331228e-08
4.1172445747947006e-08
6.008540921116035e-08
9.365945677057206e-08
1.4122239147591966e-07
1.6952180987986992e-07
1.5497421371518237e-07
1.2313611202598963e-07
1.019406818429737e-07
8.951421424261397e-08
8.130136391662492e-08
7.056963978323434e-08
6.995672152203281e-08
7.485649468325928e-08
7.272067205567544e-08
4.569329084383344e-08
2.8059754968858485e-08
4.2350089839450167e-08
7.596480558855016e-08
8.08372439838172e-08
4.8039073127453614e-08
7.849245827608612e-09
2.5153847322636156e-09
2.6503790789024967e-08
4.4819406550015547e-08
4.165516105973931e-08
3.1974812716928746e-08
2.6601215065745126e-08
1.909178783668663e-08
8.487885288182101e-09
1.9117007985928284e-27
1.8149813772002286e-28
5.077058206981044e-30
3.91001620812841e-29
1.6317573766559552e-10
4.111227542317642e-10
7.977870039530956e-10
1.2748662004774917e-09
1.4468022843347027e-09
1.227440228061562e-09
6.14084721862904e-10
9.121278080346187e-11
1.3406389383006514e-09
3.862458533268431e-09
4.936063821735134e-09
3.588420771938316e-09
2.0935024276924483e-09
3.7660500185265485e-09
7.783959447770427e-09
1.0084825970609538e-08
8.225602077853788e-09
4.2362418042742656e-09
2.4272618313680304e-09
3.49571098088016e-09
5.175953917462178e-09
6.734173777344984e-09
6.13820769953071e-09
2.5216943969985114e-09
1.390448725266633e-10
1.0475269104794425e-09
3.386603229966117e-09
4.386939227549809e-09
4.147163451921648e-09
5.4137999197944184e-09
8.455067394706594e-09
1.1312848362484547e-08
1.2805584777356846e-08
1.3986856255731822e-08
1.77480139103268e-08
2.05195904871779e-08
2.3058326298784584e-08
2.078601229775917e-08
1.2913686597679151e-08
5.697419058005468e-09
7.464668361968313e-09
1.3639211964113057e-08
1.349710782872957e-08
6.091541423287852e-09
2.433235272051508e-09
1.1729358469206334e-08
2.777232965022858e-08
3.5318028181026003e-08
2.4119182005284216e-08
8.861444563126322e-09
6.2147363105126476e-09
2.6725479533210873e-08
5.021698989779671e-08
5.477964597006492e-08
3.246063929907834e-08
7.430978315383299e-09
5.987021351242981e-09
2.3379521198444465e-08
3.9399740569326544e-08
4.421876399212247e-08
4.187512768854177e-08
4.2054181602641154e-08
4.750492572326218e-08
5.758759890495055e-08
6.589608608188145e-08
6.529385082986333e-08
7.288141410603633e-08
7.841298845083622e-08
7.066865777133533e-08
5.1112791673100686e-08
3.5399044766879416e-08
3.7200097541947347e-08
3.492352453573862e-08
3.2353019771572894e-08
3.165284348700713e-08
4.8819596080475184e-08
8.850203365676745e-08
1.166481779597136e-07
1.1525951032310379e-07
9.807982221708878e-08
1.086105800766102e-07
1.5611347575160862e-07
1.9561358373525085e-07
1.7711772951586253e-07
1.1715860233830895e-07
7.357776851178859e-08
8.535456017496407e-08
1.1263357005869912e-07
9.934471910163084e-08
4.291729781819639e-08
1.4555153606554175e-08
6.89206063703338e-08
1.591153556351177e-07
1.8733864255919692e-07
1.3813279810350808e-07
8.366256880088115e-08
1.1375949288276524e-07
2.0776406155403701e-07
2.727727337305433e-07
2.416658195504712e-07
1.6129037585124886e-07
1.0690565384220822e-07
1.1283795429813768e-07
1.23090547439045e-07
8.910820369625525e-08
3.4883125075691115e-08
2.2706827362534198e-08
6.350060553729585e-08
1.052416611530778e-07
9.659868681844768e-08
5.799370859626333e-08
5.985331835790307e-08
1.2246570785326851e-07
1.9596039752380933e-07
1.9525030398489803e-07
1.3446607707678306e-07
8.106405077213873e-08
8.314721780124582e-08
1.076009189534436e-07
9.89930947902428e-08
4.4994351782144144e-08
3.912711069042547e-09
1.3679067037759125e-08
4.893866263572874e-08
5.837132141801939e-08
3.0693240377728367e-08
1.315893506637412e-08
4.532755524273932e-08
1.0649465711079342e-07
1.3872781237603898e-07
1.163973290688668e-07
7.647247095963034e-08
5.926022662084293e-08
6.641264585749864e-08
6.314827534214555e-08
3.599331796593497e-08
6.589977766749604e-09
2.550315106323192e-09
1.557986478037879e-08
1.667315570266478e-08
5.40541419310878e-09
4.119071754389792e-09
3.310175365739895e-08
7.01297365495953e-08
8.902377727566709e-08
8.193001575379285e-08
7.36289228622815e-08
7.319363348492667e-08
7.900123518047335e-08
6.55863612976259e-08
3.596568812443283e-08
1.3598973300395983e-08
1.622211033771067e-08
2.7621406270798888e-08
2.8189145520812414e-08
1.4036186263530401e-08
5.899135611889031e-09
1.240517066805173e-08
2.215989896189954e-08
2.2399143534008646e-08
1.8673991655098824e-08
2.377019345777256e-08
3.7482724683260474e-08
4.1655009721388094e-08
2.901741280217665e-08
1.0283947232872198e-08
9.566057006602777e-09
2.9461903262961972e-08
5.221527817487514e-08
5.3628759155946444e-08
3.507522243978668e-08
1.7591215036323533e-08
8.071894675085876e-09
5.0591420739166765e-09
2.1808346048202792e-09
2.2866410467808927e-10
3.0452506485720474e-09
7.57357190203374e-09
7.402755255892775e-09
3.917414016575561e-09
7.772639832025018e-09
2.0025320773194013e-08
3.439945858545399e-08
3.376931637629961e-08
2.078938561489255e-08
6.950357871477073e-09
2.4671783410567123e-09
6.531435980455747e-09
9.487975657580968e-09
5.0600685656910296e-09
6.648976215522598e-10
6.111784307579894e-10
2.6383494324830083e-09
1.9901189199556978e-09
1.395097908161789e-09
1.1452891370610635e-08
3.581714140100534e-08
5.780779235156132e-08
5.5599933801250595e-08
3.191923176303368e-08
6.5419603188809795e-09
5.057344863008769e-09
2.5824466653579876e-08
4.8446012777807055e-08
4.5301331186093846e-08
2.445354519955125e-08
5.549096334807417e-09
1.6994781596508088e-10
4.272689043150472e-09
4.542943103553595e-09
5.530723266674245e-10
2.245165584070453e-09
1.4327386779229357e-08
3.04606861884778e-08
3.5732217594813076e-08
2.6851222301726094e-08
1.3664273027127752e-08
1.276942634714632e-08
2.8669103535187954e-08
5.051846597737143e-08
6.120896050875408e-08
4.734609410340662e-08
2.344975075090708e-08
5.5992621452306174e-09
5.118609163185107e-10
3.506142355631014e-09
6.3817885459750046e-09
6.871357026169373e-09
7.274648565094018e-09
1.0691540917376757e-08
1.7504325093467796e-08
1.9654815000908288e-08
1.3668555316071011e-08
4.631077760715943e-09
1.891694327355881e-09
8.546443163790317e-09
1.9477561025684934e-08
2.5611082145428387e-08
2.472616877326084e-08
1.792510564850723e-08
9.867525452656968e-09
6.052741567432441e-09
7.110564140660646e-09
1.3379356132368659e-08
2.092309009713771e-08
2.6558418168566147e-08
2.724588439306966e-08
2.1376674576656333e-08
1.2898137244591854e-08
5.1133267703677004e-09
2.1392470655567526e-09
7.054238165239361e-09
2.0683407925817862e-08
3.692800792084161e-08
4.529150464821366e-08
4.11929122969752e-08
2.3622303612515913e-08
6.251722137904224e-09
6.693345623878024e-10
7.827200693376582e-09
1.945688900693668e-08
2.6750323554121832e-08
2.529267431447172e-08
2.0008297768195453e-08
1.5016606788888958e-08
7.907092130141152e-09
2.622547066793911e-09
6.352512148082809e-10
4.0210375536240665e-09
1.1970439296668988e-08
2.111700702828442e-08
2.7014487889741337e-08
2.3435310032600856e-08
1.3453217129965224e-08
3.503134578771787e-09
5.405159207636032e-10
5.515585817659992e-09
3.4576053490628706e-08
1.2471763368453638e-07
2.0048369436143302e-07
2.024351490757336e-07
1.5067146816788544e-07
6.816184226311803e-08
1.5861892006157184e-08
1.5330275255823511e-09
2.560679333287046e-09
2.0555282310134894e-09
4.3308935188559186e-10
5.008026693415473e-09
1.195763516624276e-08
2.0220676105317194e-08
4.653725357834841e-08
1.0512679566766443e-07
2.0522710969566624e-07
3.188355851006754e-07
3.5697912255239524e-07
3.052340021154309e-07
1.8112834712644176e-07
5.536130157552894e-08
1.5496396766717344e-09
3.1506798517490134e-08
9.626519827116954e-08
1.3910149393233137e-07
1.2790722411226077e-07
8.81261314669508e-08
3.983227019306134e-08
1.6127756284660366e-08
1.4156777464610797e-08
2.6548392514159057e-08
4.1022485168956326e-08
6.159057173383356e-08
1.1095963582680472e-07
2.1392299411552352e-07
3.450398480470391e-07
4.5056722145579263e-07
4.3879814278856895e-07
3.1745350898583967e-07
1.422334199490041e-07
6.024073371447467e-08
1.0825508902764414e-07
2.498720076683469e-07
3.255362589178056e-07
2.864797961384053e-07
1.4812975034158206e-07
3.80665351119655e-08
3.796546619035324e-08
1.3400568372727316e-07
2.240428470309881e-07
2.2542108358746772e-07
1.373497436651284e-07
4.802944718437237e-08
2.7322018982579415e-08
8.964779183616732e-08
1.7034351600822546e-07
1.7801658135356964e-07
9.788616467305401e-08
1.702779726139559e-08
9.38029046315224e-09
7.090458389336425e-08
1.1445391447488535e-07
8.708536229794981e-08
4.148927608081831e-08
4.954972766639804e-08
1.4322954553738077e-07
2.3766902500237515e-07
2.6335168043878365e-07
2.0126102309414416e-07
1.277686628271478e-07
6.948873203280244e-08
4.4356197708842834e-08
2.9671505476385518e-08
2.845514869022023e-08
3.264824426708133e-08
4.3006325661807266e-08
4.768429120466721e-08
6.01301567874111e-08
7.140337757887321e-08
7.232400381426878e-08
8.581464635113543e-08
1.217988783594636e-07
1.956364306000423e-07
2.392936088281916e-07
2.118638830150246e-07
1.1831842892644739e-07
2.7804508982708387e-08
1.4160861940455677e-08
3.795040421348796e-08
5.206431177892286e-08
5.9119368791449216e-08
1.0531961367523036e-07
1.892942471185352e-07
2.431905023001179e-07
2.1452615731111026e-07
1.6330472862797438e-07
1.4408253847527146e-07
1.4872640073601803e-07
1.4150947571711297e-07
1.1248319968615101e-07
1.0043180985522526e-07
1.0653867709464318e-07
1.030737297112391e-07
5.4720374135181876e-08
1.9733840268596694e-08
5.115091933307014e-08
1.222262977761344e-07
1.3978201575748915e-07
7.823027758302698e-08
8.978210510237773e-09
1.0800935350506569e-08
6.313248693452067e-08
8.694897480256186e-08
6.661006060574089e-08
4.303133698189823e-08
4.0277457878253113e-08
3.7633729875217917e-08
1.776448696513123e-08
3.9360864486084e-27
3.6490965769403754e-28
1.5261203105736878e-29
4.5827993117233044e-29
1.4482751848850625e-10
4.662002380919904e-10
9.555723312442048e-10
1.6048078142226329e-09
2.192267849402874e-09
2.2381146268816995e-09