# vtk DataFile Version 4.1 
COMMENT
ASCII
DATASET STRUCTURED_POINTS 
DIMENSIONS 400 400 1 
ORIGIN 0 0 0
SPACING 0.002506265664160401 0.002506265664160401 0 
POINT_DATA 160000
SCALARS U double 1
LOOKUP_TABLE default
6.607430266520229e-07
2.1808108765503388e-10
8.757971674305586e-10
1.7672789195490584e-09
2.4129519688696026e-09
2.4420261247732335e-09
1.8102397832728528e-09
8.547865102917654e-10
1.35697543950673e-10
6.166179259250262e-11
6.582720087213721e-10
1.4681853049323837e-09
2.0513959627073853e-09
1.994216994572891e-09
1.3423943539633529e-09
7.213825246938074e-10
3.02640716214748e-10
2.6809243681056233e-10
5.30442108621563e-10
9.333903630989163e-10
1.502018956066679e-09
1.5418290681270646e-09
1.1892271086044785e-09
7.169963728751259e-10
2.602984760937915e-10
3.398305163201218e-10
8.419482024707428e-10
1.1799944454295588e-09
1.1452760356104674e-09
7.101968051216007e-10
2.0875815169918264e-10
9.97192341304616e-12
1.1409609770750616e-10
2.672984448784554e-10
4.637598156765597e-10
4.744281804938642e-10
3.5774090238526967e-10
3.843830653415066e-10
3.690448062618997e-10
1.763518666729814e-10
1.0644080624483225e-10
1.1552300299349637e-10
2.0959951467648272e-10
3.2247980061186963e-10
5.521705146895458e-10
1.0070828036238589e-09
1.6117509991484557e-09
2.013243774763355e-09
2.3015994700339147e-09
2.0786239780711686e-09
1.078733972178497e-09
5.133843445027906e-10
6.952381327222127e-10
2.173843444366622e-09
3.941847222620263e-09
4.7916253035510166e-09
4.384172479777377e-09
2.878377846183857e-09
1.0915117769781206e-09
3.5748975493956103e-10
1.0895156074791099e-09
2.303369424983834e-09
3.054503689921111e-09
2.812785779458157e-09
1.6853594223455798e-09
8.594826571650119e-10
6.72394591899439e-10
9.428634004535212e-10
1.1616346578601023e-09
8.247471364328616e-10
3.957942683325162e-10
8.829001957838261e-11
1.5775562444381472e-10
4.2707411392392853e-10
6.671014488393856e-10
6.772900726021177e-10
4.138562382548729e-10
1.0492064872080636e-10
2.5651485887727633e-11
1.1203457873225011e-10
1.8096068052085133e-10
9.314002820100089e-11
3.4514124206791457e-12
2.633823534990607e-10
8.214795107197433e-10
1.2592871316895037e-09
1.1928895095142356e-09
7.059016457881789e-10
2.3721826438950365e-10
4.5837317965144564e-11
1.1436087271209158e-10
3.835364724452016e-10
8.312537800359863e-10
1.3012465999877097e-09
1.573712640311821e-09
1.6221535177722947e-09
1.7201910873811664e-09
1.7884727812661367e-09
1.512079586035616e-09
8.432404037441094e-10
1.9870061659212834e-10
6.999571253692945e-11
8.32045729262856e-10
1.8768067220132548e-09
1.8997756841104015e-09
1.1313136374123522e-09
7.59172705708665e-10
1.1315612102648078e-09
1.5488147574901424e-09
1.4404068312759781e-09
9.427112619291678e-10
6.905214701891557e-10
6.73295089225158e-10
4.496841279756636e-10
8.117007908472402e-11
7.193308671970574e-11
6.120015944826326e-10
1.2197058218160646e-09
1.3624912137019407e-09
6.381171642426717e-10
2.0199359766103066e-28
1.831936429351263e-29
1.5935620842531505e-30
2.6395231429999184e-31
5.819690317397949e-14
4.1195612054446686e-14
1.303316782670204e-13
3.214246356700583e-13
7.432794645648788e-13
1.0940604452988607e-12
1.7242898421244267e-12
2.030204318522246e-12
2.6880968677162127e-12
2.819769145631543e-12
3.296958524934566e-12
3.5366286053302138e-12
4.1559960354309186e-12
4.875527270152364e-12
5.581445307029041e-12
6.5380744514216036e-12
7.188281987558758e-12
7.657389931095827e-12
7.758281413630044e-12
7.932754158185804e-12
7.241756849056631e-12
8.339419693366347e-12
6.45244199039215e-12
7.963154480032712e-12
6.247926774350607e-12
6.338418446122594e-12
6.382715786634947e-12
4.6839031610413325e-12
5.2753735850889854e-12
3.775924520990852e-12
3.729931170515447e-12
2.8198523407624804e-12
3.3647574534215725e-12
2.582505404530156e-12
4.3747224919975575e-12
4.347994133948604e-12
6.191455544368599e-12
8.28409253158023e-12
9.596693961126409e-12
1.3498214204377824e-11
1.3967331545731383e-11
2.0965825673056505e-11
2.0834762891024564e-11
2.463051758735917e-11
3.146263635338171e-11
2.938159389868513e-11
3.592407269084452e-11
3.530496345388944e-11
3.843166863932959e-11
4.035885188333441e-11
3.508255015651381e-11
4.157247125182911e-11
3.720525635196792e-11
3.737273105491504e-11
4.3395897984016916e-11
3.7189657733349126e-11
4.2825307051105694e-11
5.6344649038610476e-11
6.498714117345938e-11
5.856048505585949e-11
5.3455380738575375e-11
8.748436731493361e-11
1.2356203690486197e-10
9.820176814974977e-11
3.5440949892681027e-11
3.673553728960123e-11
1.0513988968479045e-10
1.1471257738365749e-10
4.5769324665180635e-11
5.208678503998386e-12
5.5503031564984257e-11
1.3872962878977922e-10
1.5147001497572914e-10
1.2393180156707605e-10
1.2347924747649135e-10
9.427289210988085e-11
4.0789151891293375e-11
5.768037710261438e-11
1.306901921855771e-10
1.669448381200262e-10
1.3809360347316262e-10
1.0984740823120033e-10
1.3683885458891875e-10
1.701993249482369e-10
1.492937891717779e-10
9.084122326926658e-11
4.910489800816814e-11
5.187045646167463e-11
6.427071402687054e-11
6.092259966849747e-11
7.499755697102374e-11
9.30537175767159e-11
7.145857957184205e-11
4.4904607507608435e-11
4.8404131168329034e-11
6.372445015177629e-11
8.887574280914513e-11
1.226770790369771e-10
1.5952459333623387e-10
2.1544652884418243e-10
2.662881627250266e-10
2.787215487374204e-10
2.954018354968814e-10
3.4295566668568055e-10
3.87154316501073e-10
4.2807900536891857e-10
4.70766598304501e-10
5.000286617905512e-10
5.544817115128801e-10
6.350921426979142e-10
6.565433490130718e-10
6.450966154179033e-10
6.998725001952717e-10
7.547275959633774e-10
7.231515042854182e-10
7.00076074491524e-10
7.51125468175493e-10
7.85313808969884e-10
7.464453320823094e-10
6.776646981725732e-10
6.276560818996249e-10
6.042406990867789e-10
5.537838454091154e-10
4.483945317842274e-10
3.7795006900167673e-10
3.83209285699146e-10
3.572704631620867e-10
2.7773317210552977e-10
2.511710437280588e-10
2.6614375938003834e-10
2.2913025783750272e-10
1.7317416865510702e-10
1.6171360897421757e-10
1.5228746046971162e-10
1.0860863604810285e-10
6.523821638454165e-11
4.3467509157170646e-11
3.4360410898586335e-11
3.769710153613115e-11
6.02843422742682e-11
1.0331054003741548e-10
1.581221274959944e-10
2.2388591377891033e-10
3.180282742454918e-10
4.2527248899978633e-10
5.026942090944978e-10
5.740727728037995e-10
6.783789296829627e-10
7.479995670062406e-10
7.410133501545417e-10
7.751516527758856e-10
9.171142003291963e-10
1.061295414655657e-09
1.1811635117262817e-09
1.4003750406665602e-09
1.744479857568175e-09
2.1469963252995442e-09
2.650007992471591e-09
3.2836104078779992e-09
3.881320970097311e-09
4.265879712385858e-09
4.44769737321494e-09
4.494058835162658e-09
4.383703777959637e-09
4.062342808252744e-09
3.5182935366939708e-09
2.800638404961011e-09
2.015083152748651e-09
1.279312176878736e-09
7.050324779947429e-10
4.230855447128872e-10
5.249632460428033e-10
1.00584063677232e-09
1.866259148612058e-09
3.126013074120038e-09
4.6015300879430844e-09
5.912128385712236e-09
6.87711484978764e-09
7.626097821272572e-09
8.176992442373166e-09
8.249470142295617e-09
7.659890676285745e-09
6.598725490975343e-09
5.386810904956415e-09
4.1948051815421334e-09
3.0755544250451727e-09
2.0888874525949547e-09
1.3348295870970188e-09
9.118563568002035e-10
8.120800094053132e-10
8.922059349294449e-10
1.0555138985947932e-09
1.380223585352845e-09
1.910922174322501e-09
2.4612142298943385e-09
2.829962802758886e-09
3.0754246217784995e-09
3.346197445817526e-09
3.5524296391922428e-09
3.4493869740474694e-09
2.980165315284113e-09
2.377607725041203e-09
1.89000483322978e-09
1.533063871776195e-09
1.18653393499474e-09
8.667411434797456e-10
8.29200972089799e-10
1.2928565213695326e-09
2.210456779523741e-09
3.2667414782537463e-09
4.0835253184408275e-09
4.717300929284561e-09
5.5212368155673915e-09
6.3502924844782325e-09
6.382541244042293e-09
5.341891246655188e-09
4.005083731574079e-09
2.854953753943171e-09
1.7417525515207247e-09
7.25109708386036e-10
1.2530803142760286e-10
1.5547636056489304e-11
3.6824852743257175e-10
1.1531088872575104e-09
2.028233400582738e-09
2.5988572537119207e-09
2.7837985767952894e-09
2.8087210378118007e-09
2.9872994706066453e-09
3.301327932396392e-09
3.303123160627757e-09
2.8127693144897147e-09
2.2756826701787002e-09
1.944663490517892e-09
1.6246472787249204e-09
1.1816632957017121e-09
7.330041548416869e-10
3.62344289459647e-10
8.410866395027413e-11
6.0832971489428665e-12
1.9534464963078341e-10
5.989741812237249e-10
9.666101358925902e-10
1.1173262104329598e-09
1.2501910623262196e-09
1.4892939799878203e-09
1.6620790219873849e-09
1.6113415580623336e-09
1.3567523286005545e-09
9.734895299330413e-10
6.032352157482056e-10
3.2186378489942153e-10
1.1778090996016314e-10
2.526759391999167e-11
1.9122110430341293e-11
4.995841946723341e-11
9.205468829596082e-11
1.1930951248860926e-10
1.8100790640285898e-10
3.1683119170573e-10
4.117977170905147e-10
3.649197302390213e-10
3.10477618342876e-10
2.9226870398929e-10
2.499121545930351e-10
2.0423209429242345e-10
1.5478476273912626e-10
9.465929962577055e-11
5.370911188254264e-11
4.943939616535296e-11
7.976214781534241e-11
9.196382767722655e-11
8.883732287865154e-11
8.137029190156029e-11
3.580688302462432e-11
3.735222669258835e-31
2.2996131142500433e-10
1.3767224815578585e-09
5.528813445728936e-09
1.1156641989859909e-08
1.5232706596350285e-08
1.5416248619618997e-08
1.1427849307980264e-08
5.396175424035664e-09
8.566440192401749e-10
3.8926427334010357e-10
4.155600483892051e-09
9.26849612741573e-09
1.295024236537044e-08
1.2589277681318796e-08
8.474391365568863e-09
4.554010392317516e-09
1.910538333826941e-09
1.6924387568928717e-09
3.348624055192824e-09
5.892393103708317e-09
9.482084332842563e-09
9.733401294144434e-09
7.507462997816916e-09
4.526321087017203e-09
1.643236320062904e-09
2.1453135472131675e-09
5.315128565766502e-09
7.449178186904427e-09
7.2300045949353285e-09
4.483396146153182e-09
1.3178677882758475e-09
6.295168138940143e-11
7.202764093895972e-10
1.6874263711107698e-09
2.927665902395873e-09
2.995014143563292e-09
2.25837989062885e-09
2.4265690036490443e-09
2.3297402216124447e-09
1.1132903917713168e-09
6.719493766658229e-10
7.292843091914538e-10
1.3231792223779724e-09
2.035780342644529e-09
3.4857931487802924e-09
6.357605565194372e-09
1.017481093413742e-08
1.270939170093202e-08
1.4529750231939485e-08
1.3122129901711134e-08
6.809931695991638e-09
3.2409402225416757e-09
4.388963654056148e-09
1.3723240164597633e-08
2.488445810960011e-08
3.0249015857051616e-08
2.767680994641931e-08
1.817089016690776e-08
6.890596605185536e-09
2.2567944237806665e-09
6.877995001553424e-09
1.454092376742163e-08
1.9282753700163693e-08
1.7756814495128472e-08
1.0639493003257535e-08
5.425821694817855e-09
4.2447548345419835e-09
5.952195370997773e-09
7.333274820063743e-09
5.206540083492553e-09
2.498606702416366e-09
5.57365410076343e-10
9.958943120622547e-10
2.696073007763646e-09
4.211339790957805e-09
4.2756594783782775e-09
2.612629978440487e-09
6.62352785501777e-10
1.6193507509858387e-10
7.072622615333531e-10
1.1423853385450347e-09
5.879829935555216e-10
2.178839588416428e-11
1.662704506872933e-09
5.185911913352084e-09
7.949744398174702e-09
7.530583341369662e-09
4.456281266638509e-09
1.4975334226953403e-09
2.8936606477656565e-10
7.219479055531888e-10
2.4212245536300038e-09
5.247615825659047e-09
8.214630014536497e-09
9.934678860627233e-09
1.024048091684091e-08
1.0859381563243254e-08
1.129043656237729e-08
9.545596009191039e-09
5.323286093605669e-09
1.2543756494580065e-09
4.418754147754621e-10
5.252615316062396e-09
1.1848079242074138e-08
1.1993079832621506e-08
7.141861474857835e-09
4.792575745896422e-09
7.1434243756827705e-09
9.77750120073763e-09
9.093133607000254e-09
5.951234936835232e-09
4.359187870117226e-09
4.250439577433862e-09
2.8388075978561233e-09
5.124179905161503e-10
4.5410584989158264e-10
3.863500328860578e-09
7.699871840502626e-09
8.60126068242863e-09
4.028365115596286e-09
1.2751638852360376e-27
1.156481790416501e-28
1.0059986268134649e-29
1.6663026081878426e-30
3.673907986161589e-13
2.600634739432599e-13
8.227698855445937e-13
2.0291191997056183e-12
4.692243421701112e-12
6.906686074533508e-12
1.08852565616767e-11
1.2816461791894e-11
1.696966678854853e-11
1.780089973567469e-11
2.0813345030730728e-11
2.232635650451522e-11
2.6236356562444015e-11
3.077867996001916e-11
3.523506470183874e-11
4.1274161735699757e-11
4.537885207039922e-11
4.834028012951846e-11
4.89771972216703e-11
5.0078624917358296e-11
4.5716433127124174e-11
5.264586075966764e-11
4.073357320728569e-11
5.0270538883779094e-11
3.944249061606882e-11
4.0013754819956665e-11
4.029339917248781e-11
2.9568977542178336e-11
3.330286679740356e-11
2.3837005916517862e-11
2.3546654835263986e-11
1.7801424937600032e-11
2.1241352383762843e-11
1.6303079223382026e-11
2.7617153188619632e-11
2.744841993523761e-11
3.908599380695332e-11
5.229658633018473e-11
6.058289816406412e-11
8.521277638456247e-11
8.817426377108777e-11
1.323550054655716e-10
1.315276202004893e-10
1.554898118839279e-10
1.9862024379343436e-10
1.8548284630856356e-10
2.2678481217425625e-10
2.228764420619224e-10
2.4261499604789714e-10
2.5478109686219577e-10
2.2147237080573544e-10
2.624425455766466e-10
2.348727870107687e-10
2.3593003682146415e-10
2.7395364267667333e-10
2.347743146069273e-10
2.7035156340625756e-10
3.556977172162956e-10
4.1025684174503286e-10
3.6968605198293915e-10
3.374580767840046e-10
5.522794138749541e-10
7.800338667747773e-10
6.199372141538027e-10
2.237349098432621e-10
2.3190750102412038e-10
6.63736830158014e-10
7.241681793670267e-10
2.88936830377278e-10
3.2881827914417085e-11
3.5038467650619987e-10
8.75785245143227e-10
9.56213934648259e-10
7.823681513696937e-10
7.795112260061591e-10
5.951346417276346e-10
2.5749753459249875e-10
3.641300250093985e-10
8.250331454032807e-10
1.0539048309564508e-09
8.717700856370017e-10
6.934548890914175e-10
8.63848990707483e-10
1.0744500567277889e-09
9.42475654903501e-10
5.734708849436967e-10
3.099939466066318e-10
3.2745262006587034e-10
4.0573411412241827e-10
3.845978278100073e-10
4.734515214233038e-10
5.874381238553187e-10
4.51110337235496e-10
2.834779638436443e-10
3.0557008081840346e-10
4.022856089549517e-10
5.61063017917684e-10
7.744472228110619e-10
1.0070616226693174e-09
1.3600907947715976e-09
1.6810485683939097e-09
1.7595391987791826e-09
1.8648400574070847e-09
2.165042285788239e-09
2.4440636145501668e-09
2.702416779517166e-09
2.9718989685044523e-09
3.156627232157207e-09
3.5003834860727358e-09
4.009268479511767e-09
4.144687640834589e-09
4.072425641179671e-09
4.418219918120884e-09
4.7645142455383125e-09
4.565177770467427e-09
4.4195050607865405e-09
4.741774399729814e-09
4.957601722882441e-09
4.712229203282387e-09
4.2780244493647954e-09
3.9623254264239675e-09
3.814506629849909e-09
3.4959779323197638e-09
2.8306665156193635e-09
2.3859581887450362e-09
2.4191590588463615e-09
2.255410058344323e-09
1.7532996832668493e-09
1.5856158199456263e-09
1.6801369655878382e-09
1.4464747060919996e-09
1.093229925511493e-09
1.0208806432625247e-09
9.613743802472557e-10
6.85634653360126e-10
4.118418525837795e-10
2.744057163208006e-10
2.1691358323779678e-10
2.379777528276789e-10
3.8056857743756806e-10
6.521883423306105e-10
9.982080064633643e-10
1.413367725362386e-09
2.0076783348467048e-09
2.6846995431360076e-09
3.1734545459718015e-09
3.624059751661847e-09
4.282533316171925e-09
4.72204092141167e-09
4.677937684839472e-09
4.893449122380419e-09
5.78964343641936e-09
6.699843955482886e-09
7.456558376862372e-09
8.84041721282956e-09
1.1012713960496986e-08
1.3553757185664719e-08
1.6729215810380862e-08
2.0729079801517875e-08
2.4502362378746984e-08
2.6930040412092646e-08
2.8077835775272477e-08
2.8370510704710983e-08
2.7673851082188714e-08
2.5645133798869987e-08
2.2210609185644768e-08
1.7680129424717525e-08
1.2721003496579547e-08
8.07616035749822e-09
4.4507943037187255e-09
2.670893598759706e-09
3.3140365842358016e-09
6.34976389928584e-09
1.1781493544142005e-08
1.9734184761552893e-08
2.9048965179672364e-08
3.732263145780641e-08
4.341448735313796e-08
4.814273640139288e-08
5.1620474970994036e-08
5.207801890553589e-08
4.83560670652891e-08
4.1657045233674485e-08
3.4006358627876846e-08
2.6481354533225823e-08
1.941564472987306e-08
1.3186922113946172e-08
8.426635804898237e-09
5.756451234983129e-09
5.126573871185502e-09
5.632400232429611e-09
6.663345865602351e-09
8.713203239968307e-09
1.206344642804924e-08
1.5537381066190924e-08
1.7865251198185297e-08
1.941482529579315e-08
2.112418504935009e-08
2.242610673404509e-08
2.1775609457138398e-08
1.881346352601015e-08
1.5009582181503318e-08
1.1931397500531444e-08
9.678067551080023e-09
7.490461282101292e-09
5.471643739264835e-09
5.234656669593632e-09
8.16166434942594e-09
1.3954376216685528e-08
2.0622588060747284e-08
2.5778856710404117e-08
2.9779814065733472e-08
3.485497496243384e-08
4.008871434866622e-08
4.02922973038486e-08
3.3722785649989755e-08
2.5283663398183702e-08
1.8023016388651248e-08
1.0995496770368359e-08
4.577539702617474e-09
7.910561426538149e-10
9.815055640178673e-11
2.324713398893832e-09
7.2794525460306974e-09
1.2804019598644671e-08
1.64063066908605e-08
1.757382139832876e-08
1.773115421772233e-08
1.885850068225816e-08
2.0840928630704774e-08
2.0852261713698014e-08
1.7756710553551256e-08
1.4366140258262406e-08
1.227645173292477e-08
1.025622376187175e-08
7.459713459415826e-09
4.627376495123484e-09
2.2874405787644165e-09
5.309689611292827e-10
3.8403201474280384e-11
1.2331897905065076e-09
3.781259668274489e-09
6.102105961109499e-09
7.053560350772561e-09
7.892321889323074e-09
9.401752925688346e-09
1.0492526336420779e-08
1.0172226176540146e-08
8.565031717216143e-09
6.145534836748481e-09
3.808159121535772e-09
2.0318915016201236e-09
7.435382333427923e-10
1.5951160634136827e-10
1.2071582917784116e-10
3.1538213589815814e-10
5.811313593149398e-10
7.531881369126369e-10
1.1426834704654611e-09
2.0001212813557683e-09
2.5996347554424364e-09
2.3036990597680244e-09
1.9600118551743273e-09
1.8450609347396424e-09
1.5776685880576525e-09
1.2892952740257194e-09
9.77139581230603e-10
5.975739908701413e-10
3.390598542417714e-10
3.121055975433903e-10
5.03529871643082e-10
5.805577659885088e-10
5.60820477023289e-10
5.136819125233192e-10
2.260450063991364e-10
3.9189353373433477e-11
5.03664277829731e-10
3.4046998289145756e-09
1.4837446348560972e-08
2.751990049685514e-08
3.979045755509957e-08
4.174150264912486e-08
3.176596709312582e-08
1.743401500488397e-08
3.2355016868984186e-09
5.855153391460865e-10
9.341946524736728e-09
2.5339535189025148e-08
3.734799468108172e-08
3.791350741109491e-08
2.9258502156751634e-08
1.911870275284412e-08
9.703998913570672e-09
6.753679696110909e-09
1.173364076813816e-08
2.008588272904603e-08
3.220759660102719e-08
3.744253160215978e-08
3.07395161503189e-08
1.902413315152364e-08
7.820275893536679e-09
9.046905008770863e-09
1.9683849045744432e-08
2.7439297871313485e-08
2.771644129611757e-08
1.860860010368565e-08
4.901736218178951e-09
4.0165376368818313e-10
2.9451012277104344e-09
6.6936239195475256e-09
8.467378119509331e-09
6.4219358796076055e-09
3.564438416861503e-09
3.9536648462541e-09
6.080302394112434e-09
4.694607042847334e-09
4.122531722368342e-09
4.186542991488885e-09
5.370715574008288e-09
8.104764074039626e-09
1.1416251254899021e-08
1.5446545239454748e-08
2.8289068336305956e-08
4.4361542967747706e-08
5.8725492876713666e-08
5.692149290153239e-08
3.86040722015539e-08
1.9213959587523254e-08
1.4591557653804061e-08
3.967374204041954e-08
7.892410146592458e-08
1.0771599185930854e-07
1.1045851938547418e-07
7.916693119366507e-08
3.639752187920052e-08
1.4989777710315873e-08
2.435144787781911e-08
4.9389694416930974e-08
6.947834091871753e-08
6.586394529774514e-08
4.53262744489247e-08
2.5806827835234296e-08
2.1526304896062415e-08
2.6436948352080303e-08
3.2346311094842326e-08
2.6734109924855335e-08
1.475284191031913e-08
5.765430291683318e-09
4.645291723472068e-09
1.0935440918645526e-08
1.8465825923886508e-08
1.9883690919844785e-08
1.3470183206465283e-08
5.976451346744184e-09
2.0688989096432855e-09
3.156241535090695e-09
5.970665110216767e-09
5.374992935954549e-09
1.209375695446549e-09
6.62559582423486e-10
7.279010217656807e-09
1.604807752763053e-08
1.916806472871385e-08
1.3131987955928799e-08
5.111775582762883e-09
1.0245319516537969e-09
1.2537979459955359e-09
4.04937928982385e-09
1.0580502234415965e-08
1.9537050391116515e-08
2.5627091073686216e-08
2.7297033521684135e-08
2.8687415904591722e-08
2.9341215146882802e-08
2.6336749976541974e-08
1.6592175568625103e-08
3.954329152484508e-09
1.795063531108799e-09
1.6639826821223317e-08
3.589369285439704e-08
3.8160265589272246e-08
2.1652879258787915e-08
1.2225696743866512e-08
1.9909151614937074e-08
2.8727902949492894e-08
2.5752396198009914e-08
1.705712587151879e-08
1.2402505668576025e-08
1.3335765363970268e-08
9.720725566617235e-09
2.5660420542933906e-09
9.983455923238764e-10
1.1255196936527272e-08
2.6069224180914623e-08
2.907652602840317e-08
1.399485798908874e-08
3.0065369025242805e-27
2.7336744990752115e-28
2.3447337196439683e-29
3.4430344333660816e-30
1.530722197887208e-12
1.0405338897036126e-12
1.6571332113509793e-12
5.203776354308557e-12
1.0592369368195242e-11
1.9697134342640683e-11
2.7841009421223644e-11
3.8667509137869874e-11
4.5325593071899976e-11
5.34205511252721e-11
5.7769823881181024e-11
6.535263411717382e-11
7.266429932942462e-11
8.66271039273874e-11
1.059731005133912e-10
1.2049523876717e-10
1.4693539423377556e-10
1.4455057350357726e-10
1.719563600330187e-10
1.5605955343387848e-10
1.7383219537340984e-10
1.6522441717023285e-10
1.6726979496890398e-10
1.717014639144214e-10
1.6287258735297046e-10
1.6367099779001336e-10
1.581463237082643e-10
1.5235146977483495e-10
1.3669434120539873e-10
1.3746622375028682e-10
1.043665843508354e-10
1.0747541916511122e-10
8.491545623407153e-11
8.097137174001134e-11
8.202724187230285e-11
8.186850472947161e-11
9.731421968017518e-11
1.0430675528775239e-10
1.396135858632897e-10
1.5412694971083828e-10
1.9453401016547035e-10
2.400348870758351e-10
2.763606453636021e-10
3.165089889403157e-10
3.957712696712942e-10
4.22778030378091e-10
4.6117758257888836e-10
5.419516491879105e-10
5.393257810700167e-10
6.133721475413685e-10
6.010161504839523e-10
6.396576484725261e-10
6.85070889127136e-10
6.196762453076914e-10
8.292414394279687e-10
7.431922205009231e-10
6.816927489026786e-10
1.0907994650379074e-09
1.197398226811075e-09
1.138040484353793e-09
9.665475814388421e-10
1.3880549805617192e-09
2.5002149248395236e-09
2.163099301901266e-09
8.844338408983933e-10
8.550669573887878e-10
1.9779437440575806e-09
2.5387089844340994e-09
1.347986502026268e-09
2.777745303709016e-10
1.0239242536574755e-09
2.068593560829045e-09
2.2084523593526223e-09
2.0310952015514354e-09
2.476760727119552e-09
2.7239637585922126e-09
1.6879059122914787e-09
1.5506001682678142e-09
3.050205753572375e-09
3.5012016177511007e-09
2.7227684551568946e-09
2.2062055580138054e-09
2.359064457008384e-09
3.118560127550657e-09
3.0716165412364407e-09
1.8012545127905203e-09
1.2066553006509159e-09
1.4989317641240662e-09
1.4695705671593857e-09
1.2419872858205691e-09
1.2525259088738918e-09
1.327644971428991e-09
1.074627595124072e-09
5.699941442544446e-10
5.163946729641225e-10
8.386313311737252e-10
9.900438787346884e-10
1.3254997448844927e-09
1.961789150393169e-09
2.459756194759e-09
2.9278033743031243e-09
3.2840403791922583e-09
3.3730426677193223e-09
3.868192570745732e-09
4.742706113316479e-09
5.188063806240852e-09
5.602230909312244e-09
6.632264160889231e-09
7.907120206501303e-09
9.050017457367188e-09
9.707525370884995e-09
9.97986134510975e-09
1.1022038413702258e-08
1.241623541580457e-08
1.2382089357667705e-08
1.2008082701739171e-08
1.3169621352079521e-08
1.4244126151697103e-08
1.3624781889311092e-08
1.2599213675940576e-08
1.2150993865643823e-08
1.1799446033547162e-08
1.0859134663482085e-08
9.132794152718567e-09
7.961443960195383e-09
8.182328699702363e-09
7.836451027685703e-09
6.303218442162995e-09
5.867062212794574e-09
6.269081696681221e-09
5.361759569086074e-09
4.201969376669093e-09
4.194630978820611e-09
3.851125259714129e-09
2.5325347343570704e-09
1.4904577559058886e-09
9.229470604857603e-10
3.812406673418192e-10
6.666298067767642e-11
1.912948549058474e-10
8.396125767873348e-10
1.892548241792494e-09
3.145957502255162e-09
4.982515418461132e-09
7.216823518799589e-09
8.875177020002695e-09
1.0687536504485517e-08
1.3615212303232583e-08
1.575060302524432e-08
1.63254516070007e-08
1.8403443117438043e-08
2.2840480110203412e-08
2.709385590937631e-08
3.170905076421549e-08
3.9224518717573895e-08
4.895491379980106e-08
6.024899627183716e-08
7.500954680881443e-08
9.255627110676494e-08
1.0893190829979287e-07
1.2152020019097885e-07
1.2892619555819852e-07
1.301401585263515e-07
1.2629068400441526e-07
1.1775398256763917e-07
1.0186733837704695e-07
7.915910813340849e-08
5.552624432130432e-08
3.466341168886742e-08
1.7069818598363627e-08
6.217394617238714e-09
5.962615827914294e-09
1.5775750282013834e-08
3.588031866927777e-08
6.809126295072431e-08
1.0650026941706442e-07
1.3980901539754166e-07
1.6544985344893552e-07
1.880641290988584e-07
2.051154227653018e-07
2.078882826514226e-07
1.9428481687017613e-07
1.6968629271776272e-07
1.3955522148371885e-07
1.0848076483844429e-07
8.064330783980645e-08
5.735634610353385e-08
3.9450675871596915e-08
3.04324868007132e-08
3.0830963293720174e-08
3.4671416292445715e-08
3.84737170499849e-08
4.627591501204156e-08
5.95623442507994e-08
7.161397946419625e-08
7.839795265945309e-08
8.483503188374886e-08
9.433270308222249e-08
1.012468895513868e-07
9.941861630913444e-08
9.027735319068726e-08
7.810253858756365e-08
6.487424581815425e-08
5.131391782049463e-08
3.822117659774344e-08
2.7260863797121833e-08
2.3913857883555194e-08
3.4800724979272816e-08
5.6500366897997134e-08
8.082721756490495e-08
1.0647638669132564e-07
1.3293605386789352e-07
1.5503424814002075e-07
1.6954999000791721e-07
1.7640414094221928e-07
1.640811945210827e-07
1.2762168098133379e-07
8.71280951482194e-08
5.737505445938939e-08
3.210784175496493e-08
9.841413155324517e-09
4.918416738069827e-10
5.5695074497791715e-09
2.1745652061273996e-08
4.623319344708057e-08
6.542341735629691e-08
7.290669689758272e-08
7.840429238118769e-08
8.692187883919692e-08
9.393787590278786e-08
9.615178938062438e-08
9.124499077274011e-08
7.680772886599248e-08
5.996158098006509e-08
4.880194700356137e-08
4.012070616211085e-08
2.789938704996588e-08
1.438068683559624e-08
4.358579183279847e-09
2.5095986214852234e-11
3.887356836649592e-09
1.2694770784082906e-08
2.2055291326535785e-08
2.9730874438166732e-08
3.3646751680751645e-08
3.720931706265492e-08
4.331011674852985e-08
4.568450416296014e-08
3.9632855248047674e-08
3.0193334485749326e-08
2.00686526006336e-08
1.0224279903566855e-08
4.184897881262578e-09
1.9405759333379622e-09
1.7273260955273286e-09
2.001719878580131e-09
2.1143658832114798e-09
2.672611053992016e-09
4.317809065803179e-09
6.882221299774952e-09
9.341425854249071e-09
1.0021948473819087e-08
8.39852819029571e-09
7.102626797201803e-09
6.834051025008538e-09
5.404137966830127e-09
3.837399634932723e-09
3.0454325418081734e-09
2.4623555073449974e-09
2.1674562486054644e-09
2.1645229363410945e-09
2.4153874519497436e-09
2.439676627931732e-09
1.576730162562082e-09
4.690346490584826e-10
7.542182358525362e-11
5.287678580194163e-10
3.753717171675923e-09
1.5788621775241457e-08
3.3304496893388557e-08
5.117714949574099e-08
5.693156121883019e-08
4.74605106961769e-08
2.8354234578024537e-08
7.710787022574646e-09
4.553495151989076e-10
1.2202625594910179e-08
3.55290231098409e-08
5.6443608709080225e-08
6.112023104589293e-08
4.7870785777151425e-08
3.249565203183463e-08
1.7183184895818324e-08
1.1194978831877033e-08
1.8925292254491227e-08
3.435498190538615e-08
5.575206427250618e-08
5.97021251251623e-08
4.4690223123820805e-08
2.628203289709269e-08
1.0308510661494307e-08
1.2853287449287371e-08
3.131298864057012e-08
4.282225866558891e-08
4.06333174381019e-08
2.2414951226945955e-08
3.6713504975933543e-09
1.1721193085718161e-09
7.948620645231171e-09
1.0111479848726582e-08
8.382149115785514e-09
3.057913786149808e-09
3.1930261655954586e-09
9.673123370610658e-09
1.859342622864857e-08
1.768410551748723e-08
1.7307288756687298e-08
1.7097570528083476e-08
2.1803644057486528e-08
3.153220328235745e-08
3.965258239271403e-08
4.684590305048865e-08
6.580196063286131e-08
9.408983797753826e-08
1.24843212909251e-07
1.3130660494768226e-07
9.380095261549992e-08
6.033457557683221e-08
5.104315125395203e-08
9.787370953522209e-08
1.6864750980698452e-07
2.175439551084767e-07
2.1641002450883553e-07
1.548442305726978e-07
8.312367167824103e-08
5.220666310811184e-08
7.970845022785638e-08
1.2672334787270705e-07
1.5311045771916053e-07
1.3589691194624646e-07
9.061457854427472e-08
5.845102128271545e-08
5.5965411629193974e-08
7.05022568236333e-08
8.048088326101648e-08
6.323366859783609e-08
3.9040033028239825e-08
2.0786131467613e-08
2.1166208443955818e-08
3.3125067915637354e-08
4.68312426357005e-08
4.640754731864251e-08
3.1505793508935645e-08
1.4417750928403713e-08
7.917935784511367e-09
1.4102147913652198e-08
2.2414996728293524e-08
1.960944685206401e-08
9.119227638325865e-09
4.540509947824499e-09
1.787418193052095e-08
3.7319499146181226e-08
4.231800983252314e-08
3.0506298724337284e-08
1.729885757327051e-08
1.2873185469755612e-08
1.3347637292494241e-08
1.442355117076484e-08
2.301719622726386e-08
4.098603946161848e-08
5.491904742682533e-08
5.610795555683906e-08
5.515629123732363e-08
5.804096736046999e-08
5.7173177572108584e-08
4.2085100014595855e-08
1.6964882456413462e-08
6.743497213207561e-09
3.0390762324208836e-08
6.795770739837827e-08
7.212238349285016e-08
4.125379575045856e-08
2.4202886120320532e-08
3.890261577191995e-08
5.515448849314553e-08
4.8255303222005e-08
2.7200977845984455e-08
1.9622242489320918e-08
2.810068224827693e-08
2.6265168937669673e-08
9.11452041802989e-09
2.2122312900371942e-10
1.5460801983734934e-08
4.3878980142125894e-08
5.403623803163622e-08
2.6318856634365787e-08
5.762082715462295e-27
5.242214292628249e-28
4.5413054195298724e-29
5.803668383975916e-30
2.052806397449773e-12
6.570499485759226e-13
4.504093304380779e-13
3.0201571227885624e-12
8.59624483444489e-12
1.5808350217187213e-11
2.3894355113494755e-11
3.075317181648856e-11
3.695340769549655e-11