# vtk DataFile Version 4.1 
COMMENT
ASCII
DATASET STRUCTURED_POINTS 
DIMENSIONS 400 400 1 
ORIGIN 0 0 0
SPACING 0.002506265664160401 0.002506265664160401 0 
POINT_DATA 160000
SCALARS U double 1
LOOKUP_TABLE default
4.218387737311643e-07
1.1862668110965289e-12
2.794130772801973e-12
1.3125211578175656e-11
1.3753319703239562e-11
3.931221737047636e-11
3.8581840581815636e-11
6.086795187187683e-11
6.778196285740177e-11
5.690388201573527e-11
1.9720120388711978e-10
1.1949029357038283e-10
3.1588570828192896e-10
4.7381456792446274e-11
1.6213069727745984e-10
3.376169438299524e-10
6.374400058316487e-10
9.235863541485618e-10
3.215527590054804e-10
6.097203923980615e-11
7.258727443218435e-10
1.8713191675960836e-09
2.8984379969299005e-09
1.2715631590185327e-09
1.326060228138257e-10
1.253943607278186e-09
2.3512582118379905e-09
4.6938512983454356e-09
1.5783428387991327e-09
1.0170975460016637e-09
5.176467199748938e-10
3.63533680552841e-10
1.8710212173245183e-09
6.103129359054723e-09
4.823272830850921e-09
4.614062469306642e-09
3.3923490734720404e-10
5.348859361346237e-10
2.8274751944467453e-09
9.47018260037318e-09
9.6962254253659e-09
1.0733722011871795e-08
3.73709334016929e-09
5.436474635210693e-10
3.7934602578073425e-09
1.5555009106011053e-08
2.600970438769843e-08
2.1067679777782214e-08
1.5034902182705818e-08
9.983630936011413e-10
1.0140809615352811e-08
2.642657482785593e-08
5.784254348564334e-08
6.73403931722642e-08
3.261219468590594e-08
1.311558595024318e-08
1.5245015785887085e-08
7.982229855989069e-08
1.3816009305042454e-07
1.4432993986542498e-07
1.0206398012149105e-07
2.7314348642779744e-08
6.5696724608284e-08
1.897207815654308e-07
3.2444623191491587e-07
3.476587497682718e-07
1.736527710892698e-07
6.933436181760705e-08
1.8429165164871524e-07
4.94399906983095e-07
7.679440179427768e-07
6.057430288772698e-07
2.2498867709531492e-07
1.3847795625972916e-07
5.693674523416407e-07
1.3216411497925154e-06
1.4892710165744535e-06
7.563786642006782e-07
1.4017651444994905e-07
5.24317360156889e-07
1.9382528429239405e-06
2.9626045610855996e-06
2.076241063361446e-06
4.04609078495048e-07
3.639745701612155e-07
2.581346901546907e-06
4.989984794050891e-06
4.566748821950823e-06
1.4022133704341282e-06
1.1555022569859313e-07
3.4015811776609207e-06
7.778206175251838e-06
7.855695158537337e-06
3.235267482586153e-06
2.856214534443772e-08
3.996138307857769e-06
1.1301075687440511e-05
1.2320451651810114e-05
5.490968194955738e-06
1.2900660008645333e-07
3.5619411722174312e-06
1.1972747734149574e-05
1.5283740530367156e-05
9.259125480891176e-06
1.1804735476662933e-06
2.146583516245614e-06
1.2443534375307968e-05
1.9667514083751344e-05
1.4346927145001143e-05
3.267521088328572e-06
1.257527940482595e-06
1.1869883420677099e-05
2.2168233356074192e-05
1.9015846123746578e-05
6.372940647837647e-06
6.375757851196963e-07
9.725378624389443e-06
2.245623683055826e-05
2.2648355810355e-05
1.0061125977449163e-05
3.063189532503372e-24
2.7924326616118764e-25
2.447569321973984e-26
2.280764367367588e-27
6.864769718219962e-10
6.784313389576146e-10
6.051709116640565e-10
6.268567334841875e-10
6.04589489691241e-10
6.354612956437651e-10
8.100123389673941e-10
7.832411166010562e-10
9.248683446747532e-10
9.704012983853293e-10
7.655079488094227e-10
8.292243296495721e-10
6.080004968366489e-10
3.9849548668915127e-10
4.5322195639917113e-10
3.529812467121342e-10
2.9560632274229333e-10
5.552893552744354e-10
6.498361720810976e-10
5.934424047607997e-10
9.355593822690982e-10
9.33684116780988e-10
6.945994618811422e-10
8.83268858391729e-10
7.314850273679028e-10
3.8504318216204115e-10
4.166605287068078e-10
3.3455011098752727e-10
1.1269898607253206e-10
8.130347044806022e-11
1.684699449419903e-10
1.958096314056859e-10
1.2649784024553259e-10
2.1950762846488752e-10
4.2214526188927526e-10
3.515703668077587e-10
2.632424396074178e-10
4.4128497946253496e-10
4.573704926452816e-10
2.3988107993774355e-10
2.2913311839883634e-10
3.2129022838958143e-10
1.9962790570703807e-10
5.532254167274713e-11
7.840543940142671e-11
1.1037071321130172e-10
6.249921446834285e-11
1.234734691174503e-11
3.075562099321896e-12
5.2817803763397255e-11
1.2437771694076516e-10
1.0498418534352687e-10
2.884853936693899e-11
7.843299571247192e-11
2.2369567705289755e-10
2.271796178947676e-10
9.333907784554672e-11
9.058692580319328e-11
2.5755400680721816e-10
3.178741904323412e-10
1.7727063400089746e-10
1.0084063313323507e-10
2.5380036027659285e-10
4.129171068310527e-10
3.387844896261094e-10
1.775915266134496e-10
2.373701738316195e-10
5.034655784514751e-10
6.463338834149603e-10
5.037688810418358e-10
3.281974471521028e-10
4.524208135721771e-10
8.388469107493119e-10
1.1090210703265882e-09
1.005066790755632e-09
7.047993327887932e-10
6.240870630016269e-10
9.551795719685823e-10
1.4613966613592527e-09
1.7274083678219852e-09
1.5759273480654948e-09
1.2298161357855282e-09
1.0930218592283805e-09
1.3883156406365722e-09
1.978591125505608e-09
2.4919032155427703e-09
2.6086946561869258e-09
2.2757407117289145e-09
1.7129412520856659e-09
1.248206577603908e-09
1.1165209234155968e-09
1.3474082312541191e-09
1.7832118727973188e-09
2.188394717033594e-09
2.3727527095046722e-09
2.264821644492336e-09
1.9137546110073757e-09
1.438843248168253e-09
9.651877622177213e-10
5.783063824294391e-10
3.104347710433926e-10
1.5200944788072874e-10
7.306521956263957e-11
4.1515038940708186e-11
3.279095792295663e-11
3.186209375665828e-11
3.130462261680258e-11
2.85229359723882e-11
2.352866982115206e-11
1.745745278360838e-11
1.161632985305569e-11
6.9271434644055445e-12
3.727462762902261e-12
1.862828935291268e-12
9.298043341003822e-13
5.130614082486361e-13
3.2032626457052725e-13
2.04850455248977e-13
1.2096604952655977e-13
6.670644151591371e-14
4.54320956097302e-14
5.2094330504479343e-14
7.49527410223484e-14
1.0166899475772395e-13
1.2345299889906015e-13
1.3600297494678314e-13
1.3851629006760283e-13
1.3227067615657476e-13
1.1953451431301037e-13
1.028996857948235e-13
8.487317740614356e-14
6.759237852548656e-14
5.262877988809847e-14
4.0896548634181574e-14
3.267536770634034e-14
2.7727119455830012e-14
2.5464927543508152e-14
2.5130674168164743e-14
2.5948106603225633e-14
2.7233923992715228e-14
2.846251048714702e-14
2.9288951642230956e-14
2.9539808774334116e-14
2.918283213339416e-14
2.8286354663213155e-14
2.6977307911545242e-14
2.5404281214716547e-14
2.370935059528724e-14
2.200997021559174e-14
2.039033399443524e-14
1.8900402297343372e-14
1.7560229625302296e-14
1.6367206116906752e-14
1.5304171859708748e-14
1.4346906322618812e-14
1.3470087857295594e-14
1.26513525738127e-14
1.1873494639472573e-14
1.1125117673770545e-14
1.0400176402412296e-14
9.696865461063544e-15
9.016253411767528e-15
8.360960068975714e-15
7.734063860522489e-15
7.138324428441745e-15
6.575726599210623e-15
6.0473001480880436e-15
5.55314395695478e-15
5.0925774751770465e-15
4.6643502135865065e-15
4.266856125154883e-15
3.898319438876747e-15
3.556936220736418e-15
3.240967761725808e-15
2.948789246854935e-15
2.6789035574350917e-15
2.4299341486259795e-15
2.2006085166115213e-15
1.989737452174598e-15
1.796193274313036e-15
1.618892731043981e-15
1.45678854361517e-15
1.3088668320346124e-15
1.174145864661466e-15
1.0516764736359228e-15
9.405457671524187e-16
8.398815607926676e-16
7.488547962947777e-16
6.666813106525825e-16
5.926237929351788e-16
5.259918211030503e-16
4.661400930181498e-16
4.124673885650057e-16
3.6441580884713474e-16
3.2146854386039407e-16
2.831474986552851e-16
2.4901180692007694e-16
2.1865569653222394e-16
1.9170588556283294e-16
1.6782002425002755e-16
1.4668520204789506e-16
1.280156953263858e-16
1.1155123725199676e-16
9.705560762530081e-17
8.431456327800156e-17
7.313408755457217e-17
6.333918869172548e-17
5.4772244644610887e-17
4.729147139797961e-17
4.0769876444441997e-17
3.5093847598239047e-17
3.0161795171585946e-17
2.58832472722659e-17
2.2177705979626554e-17
1.897358955964653e-17
1.620754826033978e-17
1.3823565555326556e-17
1.1772154917342937e-17
1.0009813424243585e-17
8.498281879837407e-18
7.203953032354566e-18
6.0974434334352635e-18
5.1530217969836665e-18
4.348224133899162e-18
3.6635222913705954e-18
3.0819063429129616e-18
2.5886426114109372e-18
2.1709909525026957e-18
1.817918191103502e-18
1.5199348353780553e-18
1.2688571809573356e-18
1.0576414003376908e-18
8.80256393751721e-19
7.31513415012458e-19
6.069842281183258e-19
5.028876382404769e-19
4.1599618715672034e-19
3.4358078297462745e-19
2.833194227899756e-19
2.33255967838111e-19
1.9173886419684698e-19
1.5737111670833162e-19
1.2897940747094316e-19
1.0556559083600264e-19
8.629021872049581e-20
7.044112436502126e-20
5.741941574184353e-20
4.6726269789473245e-20
3.7947291587748186e-20
3.0747130005559916e-20
2.4852065183983893e-20
2.004325123463681e-20
1.6140261179434257e-20
1.2992486937384942e-20
1.0468639239050251e-20
8.451453753524293e-21
6.836161871742452e-21
5.530780550995688e-21
4.4602101463548586e-21
3.567666069074918e-21
2.816725358764888e-21
2.1878938281811307e-21
1.6743772835530662e-21
1.2739781894581579e-21
9.825798246772748e-22
7.88246323189223e-22
6.69936090728584e-22
5.992887295120647e-22
5.463507879118914e-22
4.860846032923603e-22
4.0447506543354497e-22
3.0130391773873894e-22
1.892296935666045e-22
8.881953019177703e-23
2.1417836784933496e-23
2.384681618808535e-31
1.1808184990565352e-12
7.488774957624546e-12
1.7639047441903732e-11
8.285805087078964e-11
8.682322999715423e-11
2.481738056049854e-10
2.4356301539034837e-10
3.842528421398409e-10
4.2790025083475295e-10
3.592280949318273e-10
1.2449100181081479e-09
7.543293884635817e-10
1.994152546058804e-09
2.991140473322808e-10
1.0235136769200639e-09
2.131339501849845e-09
4.024090287283316e-09
5.830501448285642e-09
2.0299280285599885e-09
3.849099345132118e-10
4.582356666520023e-09
1.1813436900474845e-08
1.8297527743840625e-08
8.027241640094307e-09
8.371275783737321e-10
7.91601130253162e-09
1.484324053493949e-08
2.963177906441692e-08
9.96390880633275e-09
6.420827558108967e-09
3.267848141061266e-09
2.294949076979333e-09
1.1811555972414275e-08
3.852840008647349e-08
3.044880329753069e-08
2.9128080757076113e-08
2.14155353174346e-09
3.376677460956616e-09
1.784954719411295e-08
5.978424553263121e-08
6.121122960680546e-08
6.776083411648948e-08
2.3591868842976448e-08
3.431988042242717e-09
2.3947707139469083e-08
9.819710167145397e-08
1.6419647001146987e-07
1.3299799948821998e-07
9.491372253102676e-08
6.302558972433747e-09
6.401784184393973e-08
1.6682812832275627e-07
3.651537639666349e-07
4.2511266884293475e-07
2.0587728206881063e-07
8.279728531557231e-08
9.624014713891553e-08
5.039095968324253e-07
8.721898271963912e-07
9.111394074159088e-07
6.443189434784884e-07
1.7243254905765896e-07
4.147363657503855e-07
1.1976869154881405e-06
2.0481942122397932e-06
2.194732344114984e-06
1.0962512912700974e-06
4.3770037872224043e-07
1.1634134014846523e-06
3.121093507660841e-06
4.8479480978748166e-06
3.823990676447081e-06
1.4203293517274053e-06
8.741964634939967e-07
3.594355568998217e-06
8.343378616808425e-06
9.401607960126334e-06
4.774937261973709e-06
8.849192789011219e-07
3.309959176014756e-06
1.2235982003252944e-05
1.8702604371013415e-05
1.3107086817105376e-05
2.554253652144618e-06
2.2977323657195956e-06
1.62957657184874e-05
3.1501238014130705e-05
2.8829394783433613e-05
8.852022391191156e-06
7.29456163204649e-07
2.147381659952827e-05
4.910298010160438e-05
4.959215972973865e-05
2.0423896106823382e-05
1.8030975560526954e-07
2.5227191899120083e-05
7.134247692902662e-05
7.777768789755993e-05
3.466389241176478e-05
8.144048093216881e-07
2.2486152020367992e-05
7.558267041339271e-05
9.648461229126578e-05
5.845186460768212e-05
7.452202707862985e-06
1.3551151166448435e-05
7.85546959102809e-05
0.0001241589038582149
9.057061001566337e-05
2.062750965540917e-05
7.938638813046012e-06
7.49332990514359e-05
0.00013994567601389017
0.00012004499402450815
4.023168977124033e-05
4.024947447344258e-06
6.13952706207999e-05
0.0001417638110129057
0.00014297663749622978
6.351480759693615e-05
1.9337586491410527e-23
1.7628327448360372e-24
1.5451242228134251e-25
1.439822046677401e-26
4.333655386358248e-09
4.2828641702933484e-09
3.820378961933062e-09
3.957279225737956e-09
3.816708507471127e-09
4.011598902406989e-09
5.113520889806217e-09
4.9445170385927506e-09
5.83859451677466e-09
6.126039162704906e-09
4.832569455102164e-09
5.234804123359566e-09
3.838241829192569e-09
2.515659203755038e-09
2.8611415286839146e-09
2.228332695614648e-09
1.8661309634227214e-09
3.505482054387754e-09
4.102345953303016e-09
3.746338157650381e-09
5.906085888748177e-09
5.894247539150184e-09
4.3849317936382075e-09
5.5759814282078544e-09
4.617786406555973e-09
2.4307362502317564e-09
2.6303331628454723e-09
2.111978915534237e-09
7.11456593706371e-10
5.132600758648856e-10
1.06353266650676e-09
1.236125170506242e-09
7.985672779201187e-10
1.385728080461015e-09
2.664957694293122e-09
2.2194259623255863e-09
1.6618212455036041e-09
2.7857846754729646e-09
2.8873307923976593e-09
1.5143434912295862e-09
1.4464927645084364e-09
2.0282707009810977e-09
1.2602295260372514e-09
3.492452632035211e-10
4.949651171545543e-10
6.967584572208849e-10
3.945508276920392e-10
7.794747478462054e-11
1.9415693176757693e-11
3.334331218239492e-10
7.851831672265532e-10
6.627538853763335e-10
1.8211773030679427e-10
4.951390771862688e-10
1.41216678134502e-09
1.434160525658178e-09
5.892395725809606e-10
5.718655323553049e-10
1.625910780249258e-09
2.0067056202849343e-09
1.1190904712246245e-09
6.365960853453607e-10
1.6022144128929657e-09
2.6067013426371104e-09
2.138710093051042e-09
1.1211162318195326e-09
1.498492410686325e-09
3.1783241178670726e-09
4.080236381146058e-09
3.18023883454129e-09
2.0718752311017625e-09
2.856084000070493e-09
5.295550444249077e-09
7.001130893363508e-09
6.344878692503838e-09
4.4493224830764605e-09
3.939794593480987e-09
6.029946038851781e-09
9.22564014972914e-09
1.0904943479434268e-08
9.948660072787116e-09
7.763697166609705e-09
6.900129592228517e-09
8.764287515780152e-09
1.2490633248323132e-08
1.5731117336184387e-08
1.6468409156017378e-08
1.4366506668334468e-08
1.0813614131751465e-08
7.87979405043117e-09
7.048476660330483e-09
8.506043434348386e-09
1.1257225012305157e-08
1.3815100785944075e-08
1.4978932989914415e-08
1.4297575769722948e-08
1.20813272965995e-08
9.083262874790798e-09
6.0931266688818965e-09
3.650786074482547e-09
1.959741364775057e-09
9.596193166352552e-10
4.6125288292290426e-10
2.6207998156553413e-10
2.0700579518276318e-10
2.0114197547328317e-10
1.9762272004718655e-10
1.8006223105112889e-10
1.4853396528896237e-10
1.1020702426038044e-10
7.33326426140663e-11
4.3730312623482423e-11
2.3531072043141747e-11
1.1759838975898378e-11
5.869754887827765e-12
3.2389015606568473e-12
2.0221853009339394e-12
1.2931989203242531e-12
7.636456772991156e-13
4.2111060013123086e-13
2.8680793957310347e-13
3.288659128510475e-13
4.73168603153145e-13
6.418254433037067e-13
7.793455215562822e-13
8.585721723112683e-13
8.744384607055426e-13
8.350105709471968e-13
7.546085492618936e-13
6.49594663628336e-13
5.357952524572766e-13
4.2670342531125013e-13
3.3223983440286546e-13
2.5817551869451383e-13
2.062760865611906e-13
1.7503832686337182e-13
1.60757352310373e-13
1.5864724665508662e-13
1.638076098145141e-13
1.7192483688047833e-13
1.7968077145330176e-13
1.8489800569457842e-13
1.8648163982415446e-13
1.8422808463393804e-13
1.7856871865828497e-13
1.7030484712403133e-13
1.603744985509336e-13
1.4967458360856032e-13
1.3894657780758994e-13
1.2872198831389346e-13
1.1931620954862654e-13
1.1085584342239484e-13
1.0332441416048077e-13
9.661359307880284e-14
9.057047856620033e-14
8.503521777657601e-14
7.986662987500366e-14
7.495609628779881e-14
7.02316728889583e-14
6.565519651120483e-14
6.121527008341634e-14
5.691863932299395e-14
5.278184283716685e-14
4.8824314410189514e-14
4.5063475365799584e-14
4.151185570035054e-14
3.81759562744404e-14
3.505640131876122e-14
3.214889459026212e-14
2.944554188514254e-14
2.6936204401023795e-14
2.460967188629e-14
2.245455629926668e-14
2.0459881356746253e-14
1.8615389776223667e-14
1.6911630408227574e-14
1.5339913273040405e-14
1.3892205190755063e-14
1.2560998811320781e-14
1.1339175205698759e-14
1.0219895920476912e-14
9.196549597383856e-15
8.262735720934354e-15
7.412256724730795e-15
6.639120614027467e-15
5.9375644009125434e-15
5.302082078837609e-15
4.727439892047209e-15
4.208687503712948e-15
3.741170349125032e-15
3.3205298681085032e-15
2.942692337579897e-15
2.6038623195292777e-15
2.3005178581489037e-15
2.0293963873948843e-15
1.787479745204795e-15
1.5719847899075785e-15
1.3803499256789257e-15
1.2102186637971774e-15
1.0594297869885229e-15
9.260079245873688e-16
8.081493340077284e-16
7.042109786858151e-16
6.12701625875836e-16
5.322687814689006e-16
4.616876391586366e-16
3.9985349473985413e-16
3.457712971741144e-16
2.985459792026406e-16
2.573758507669653e-16
2.2154369034185127e-16
1.9040817314039633e-16
1.6339815982491983e-16
1.4000547566889048e-16
1.197782328742614e-16
1.0231651126135007e-16
8.726668451604098e-17
7.431634950722796e-17
6.31908769601998e-17
5.364874067894844e-17
4.5477781692916587e-17
3.8492505448781856e-17
3.2530473101303496e-17
2.7449871900220437e-17
2.3127422714419116e-17
1.9455743705091972e-17
1.634182275120278e-17
1.3705232689856218e-17
1.1476322271852062e-17
9.595185354531636e-18
8.010159091251988e-18
6.676776555583289e-18
5.556964062514237e-18
4.617965614706839e-18
3.831826233934566e-18
3.174675643393506e-18
2.626139245998884e-18
2.16898857777456e-18
1.788565083800158e-18
1.4725198701697309e-18
1.2104268543713647e-18
9.93466956029393e-19
8.14233145260821e-19
6.664242357996528e-19
5.447408820657043e-19
4.446872518030535e-19
3.6248260396957215e-19
2.949779221583075e-19
2.3955717574979935e-19
1.9410332907453039e-19
1.5688841806426214e-19
1.2653089213258914e-19
1.0189173514712058e-19
8.202017446986896e-20
6.608739504508131e-20
5.3353119747497134e-20
4.3155955601633044e-20
3.49152235390686e-20
2.815682756806657e-20
2.252229267929928e-20
1.7781684636128677e-20
1.38119387284206e-20
1.0570163940688117e-20
8.042487467853281e-21
6.202920891050312e-21
4.976114370158112e-21
4.2292345807260895e-21
3.783245377832108e-21
3.4490538387489935e-21
3.0685998886354077e-21
2.553407642082135e-21
1.902099268637826e-21
1.1945867297009298e-21
5.607081537022219e-22
1.3520850306284778e-22
6.866683413371953e-24
4.963887006596059e-12
3.143616349307978e-11
5.6819233100550854e-11
3.3939810619048493e-10
2.8525247841124144e-10
1.0218747520741605e-09
8.290792898946383e-10
1.6184438881132492e-09
1.5016566633185268e-09
1.5228069222703884e-09
4.578557365440827e-09
2.940972406883852e-09
7.682222976920189e-09
1.1410212831908475e-09
4.2682080583754526e-09
7.219265679390494e-09
1.579687014992369e-08
2.1633454355042378e-08
8.906057731051754e-09
1.7477693543524685e-09
1.530132205750917e-08
4.4933993615209345e-08
6.893802554092977e-08
3.408790144902584e-08
4.180265320205319e-09
2.7300844519949137e-08
5.482215223058936e-08
1.1706774005229737e-07
4.155995698990108e-08
2.9769560928161286e-08
1.0232107912947726e-08
7.622592556877803e-09
4.8893204795334125e-08
1.4859110071598231e-07
1.1780236537650826e-07
1.199349863900905e-07
7.625204520073133e-09
1.1276443021353095e-08
7.237339335002302e-08
2.3672230424349276e-07
2.3144778591978967e-07
2.724978996594639e-07
9.224570273921085e-08
1.3993624847954402e-08
8.800792025406613e-08
3.9639585310339977e-07
6.402894915002889e-07
5.248993598681078e-07
3.8926928759889967e-07
2.658693785838169e-08
2.5480124605800894e-07
6.498741772841583e-07
1.4647003987271298e-06
1.6707655502839726e-06
8.243697782548407e-07
3.5028838390110653e-07
3.805916973835621e-07
2.01143394538155e-06
3.4160286963120803e-06
3.6420878590816908e-06
2.6128648892492107e-06
7.008032617613489e-07
1.659121724172737e-06
4.678101636966224e-06
8.156920814091932e-06
8.80620610383417e-06
4.398996871562851e-06
1.798435544952384e-06
4.511091430467054e-06
1.2326555670566606e-05
1.9336903618283625e-05
1.5235787995271848e-05
5.776166954433576e-06
3.3983945067118335e-06
1.4004312604023877e-05
3.305686021672293e-05
3.730238184893598e-05
1.9093705522429126e-05
3.5836159998230445e-06
1.2725665848086011e-05
4.822581243630916e-05
7.432074412109007e-05
5.2244991965313876e-05
1.0298230130285364e-05
8.837434516511539e-06
6.418179488105933e-05
0.00012560105751753298
0.00011562901636634243
3.567920704279192e-05
2.787239819936631e-06
8.496132884803531e-05
0.0001953464353317336
0.00019858482892271803
8.267097161301089e-05
8.072585936572079e-07
0.00010015400804325068
0.0002841354042072042
0.00030964926410106665
0.0001379560102673129
3.2984383591884957e-06
8.875869340840198e-05
0.00029954014375412356
0.00038373591515844144
0.00023349618475647862
3.0135478940985425e-05
5.3546095983374405e-05
0.00031237077146108107
0.000494740740061072
0.0003614270324240252
8.268212192729659e-05
3.14062363950744e-05
0.00029764634574485987
0.0005566315123746749
0.00047796289318477003
0.0001603772172664069
1.6020629413279995e-05
0.00024424979387680456
0.000564281497126059
0.0005692740038450632
0.0002529170006472857
5.788793152946602e-23
5.277048884018139e-24
4.626338154891895e-25
4.30788579211432e-26
1.711941414541845e-08
1.684172950801065e-08
1.535324554344509e-08
1.602194683019451e-08
1.5827441129036246e-08
1.6879599657667265e-08
2.0660449034878036e-08
1.9964918147178153e-08
2.2778199447963063e-08
2.283358791567768e-08
1.8206509341310597e-08
1.8903850738444925e-08
1.3917232972123351e-08
9.786886124966912e-09
1.1313885996104705e-08
9.730931261829546e-09
9.205898612496736e-09
1.566298909624207e-08
1.719889457425098e-08
1.638227236552064e-08
2.3659501775735293e-08
2.17868164850019e-08
1.6734664509307904e-08
2.0123801158186197e-08
1.52562600062343e-08
8.11581574773623e-09
8.698931624002853e-09
6.754668657010896e-09
2.5440954722164406e-09
2.2280101532171015e-09
5.109422290767095e-09
6.1428777203484204e-09
4.390858756017842e-09
7.459501674937874e-09
1.2151257795684731e-08
9.405741085160155e-09
7.67737880161436e-09
1.1932273899642144e-08
1.0937805203278038e-08
5.547484213577338e-09
5.736561111099735e-09
7.0856751221726685e-09
3.647538778986999e-09
8.725643052884219e-10
1.4434700446093824e-09
1.649915157301854e-09
9.216343573676359e-10
4.0655756757294964e-10
3.394250411771314e-11
1.145294838415471e-09
3.4556875296348577e-09
3.3327092886306303e-09
1.348154937145759e-09
2.7056175605779287e-09
6.654871312817926e-09
6.733481777607472e-09
3.2318743221767363e-09
3.3608292365204956e-09
7.8465853549889e-09
9.236506428263137e-09
5.336943437119169e-09
3.3503458415038555e-09
7.423907038615505e-09
1.146432430223646e-08
9.283049343041311e-09
4.880079359382749e-09
6.248396599370806e-09
1.2863675656229936e-08
1.622450979207634e-08
1.2338652377466292e-08
7.744849944246671e-09
1.0720067641564354e-08
2.0031390559856718e-08
2.6164859291878313e-08
2.3095905895061618e-08
1.5737933274399434e-08
1.440922789399045e-08
2.3282011676789132e-08
3.58542910532856e-08
4.174281447460624e-08
3.702880822117133e-08
2.780284305375014e-08
2.4303023600776263e-08
3.188774644442112e-08
4.684287135992153e-08
5.972323826907615e-08
6.257288667537286e-08
5.420444349492424e-08
4.0272088485226814e-08
2.9048561465318817e-08
2.633966438581048e-08
3.269419433773487e-08
4.397734942145177e-08
5.423266547713945e-08
5.879829648063435e-08
5.6056239041308324e-08
4.734923395422735e-08
3.565173979636946e-08
2.39976462215391e-08
1.4435321946481772e-08
7.748853138829244e-09
3.742929160539103e-09
1.7300579627478352e-09
9.420937085284808e-10
7.590732284951779e-10
7.778642017918677e-10
7.895011481134746e-10
7.230753143275794e-10
5.87414685676791e-10
4.2331750172171355e-10
2.7113850752889345e-10
1.5476281854575348e-10
7.94051798588256e-11
3.768048493334475e-11
1.7749626618947374e-11
9.248834299266248e-12
5.645952676164494e-12
3.891172050221243e-12
2.9838989487709502e-12
2.686183763372062e-12
2.8461617435173006e-12
3.2346914219652285e-12
3.6131739871398544e-12
3.819077140048718e-12
3.791124563702881e-12
3.545570115583153e-12
3.1388427242831603e-12
2.639014970832017e-12
2.1104594328395994e-12
1.6070510421532287e-12
1.1689691069532706e-12
8.210387405852657e-13
5.726336554340055e-13
4.1949908051333594e-13
3.4724607450244795e-13
3.3568456198766036e-13
3.6302663241247077e-13
4.092382347501108e-13
4.582037885416364e-13
4.987035484309412e-13
5.244127617372375e-13
5.332213993929616e-13
5.26179854035596e-13
5.063342694708347e-13
4.77649654525052e-13
4.441460547401263e-13
4.093043959000651e-13
3.7574227236782836e-13
3.4512049526346464e-13
3.1821961347022885e-13
2.951198326333267e-13
2.754238294609286e-13
2.584752427921496e-13
2.4354177450221186e-13
2.2994743626054056e-13
2.1715130258466815e-13
2.0477910636794776e-13
1.926190224565813e-13
1.805945700096384e-13
1.6872662468517763e-13
1.5709406399248814e-13
1.457994778517186e-13
1.3494335910341137e-13
1.2460769159256515e-13
1.148480856028716e-13
1.0569259638793376e-13
9.714500171976773e-14
8.919043486342726e-14
8.180167077477329e-14
7.494487599119841e-14
6.858414858487529e-14
6.26846246291735e-14
5.721424777947241e-14
5.214445691966109e-14
4.745009326576263e-14
4.3108844965747475e-14
3.910053542210992e-14
3.540646502760175e-14
3.200887405319457e-14
2.889053518792618e-14
2.6034515085445953e-14
2.3424125432408503e-14
2.1042988324652174e-14
1.887511793199302e-14
1.6905006217387697e-14
1.5117735148394335e-14
1.3499079441798009e-14
1.2035559290567006e-14
1.0714467323382124e-14
9.523890839616566e-15
8.452702383547301e-15
7.490520683199722e-15
6.6276831859035225e-15
5.855226968180961e-15
5.1648498933443296e-15
4.548869885544315e-15
4.000199656173612e-15
3.5123136672407253e-15
3.0792072985527135e-15
2.695371709084952e-15
2.3557709809016805e-15
2.055807135522439e-15
1.791291940484123e-15
1.5584243290675711e-15
1.3537578167172399e-15
1.1741717958718388e-15
1.0168518074236825e-15
8.79263398752087e-16
7.591271154739319e-16
6.544012590519153e-16
5.632596237247247e-16
4.840694498635531e-16
4.153765495174121e-16
3.5588729523827425e-16
3.044514601676584e-16
2.600509881906879e-16
2.217858714533111e-16
1.8886108091752294e-16
1.6057764883048703e-16
1.3632103414918531e-16
1.1555142696307236e-16
9.779683132872671e-17
8.264405514512764e-17
6.973233622966087e-17
5.874807300484165e-17
4.9418192989857313e-17
4.150611225094492e-17
3.480730617146586e-17
2.9144684505760596e-17
2.4365895582611497e-17
2.0339610974496018e-17
1.6952778555360927e-17
1.410859936515203e-17
1.1723831061673652e-17
9.72740281873491e-18
8.058657121687238e-18
6.66581817113394e-18
5.5050969666218445e-18
4.539259349767378e-18
3.736919188511092e-18
3.0715929011011953e-18
2.5208754784049888e-18
2.0659464800415163e-18
1.6908063166208341e-18
1.381989124621876e-18
1.128082571970961e-18
9.194836901186738e-19
7.481981937027492e-19
6.075855870339662e-19
4.922692299455819e-19
3.9786450041507152e-19
3.2086070101516966e-19
2.5836746509316445e-19
2.079684636763107e-19
1.675605291688842e-19
1.3526411013732078e-19
1.0940190179163004e-19
8.850172686544158e-20
7.136208818498961e-20
5.707504885950048e-20
4.505756229767431e-20
3.4997502406725504e-20
2.6784635049618676e-20
2.0382469263131353e-20
1.572323984465797e-20
1.2614957543884018e-20
1.0720346940205498e-20
9.586217082020852e-21
8.734399712810086e-21
7.765903763548699e-21
6.457804612309725e-21
4.807413073438858e-21
3.0171103972833067e-21
1.415001559702882e-21
3.4102835646452463e-22
1.878767023684437e-23
1.0073543114817035e-11
6.381170645760508e-11
1.0403344358426439e-10
6.788120356183561e-10
5.286732496744083e-10
2.062313004463376e-09
1.565485949148704e-09
3.3067174041188887e-09
2.8885677543844743e-09
3.1684618352825083e-09
8.771969929597466e-09
5.8100044078538915e-09
1.5061434976260024e-08
2.3754856858200525e-09
8.878315485551591e-09
1.3186192734847165e-08
3.068692505028477e-08
4.136015043351993e-08
1.808712614943458e-08
4.187053022632065e-09
2.6835516615996953e-08
8.493038369340708e-08
1.3123119150864553e-07
6.775354460269851e-08
9.58301975132781e-09
4.7754399630673234e-08
1.0169194900351729e-07
2.2816658909899118e-07
8.525138048082691e-08
6.50544358355712e-08
1.8273493348280952e-08
1.3847431441713099e-08
9.954508641582608e-08
2.9326754943840025e-07
2.3368485810417023e-07
2.4152740070925754e-07
1.4683835734115278e-08
2.137549861758028e-08
1.4800455847004645e-07
4.708868546726026e-07
4.498324157556873e-07
5.385549906084644e-07
1.8015437507391882e-07
2.714919660906443e-08
1.7091414636669797e-07
7.964710255301146e-07
1.263090763694919e-06
1.0397204103765738e-06
7.769027976090414e-07
5.2801330545052305e-08
5.119311149169584e-07
1.2981825604821794e-06
2.936154746206621e-06
3.3035871942188622e-06
1.641782355428364e-06
7.086303409756338e-07
7.704931333235438e-07
4.049023406268327e-06
6.8068413296606655e-06
7.3061979326535445e-06
5.2534036629993815e-06
1.41828134399582e-06
3.355232077407628e-06
9.356656168199758e-06
1.6412525196545048e-05
1.7737323665061532e-05
8.873708929171384e-06
3.6742619210986496e-06
8.991783479725717e-06
2.47084765712938e-05
3.886022415311423e-05
3.061988349345158e-05
1.1720683197293983e-05
6.730890709755105e-06
2.7760220350573256e-05
6.595015324904223e-05
7.445916204401858e-05
3.8254810379168314e-05
7.148433210780561e-06
2.4960389301089078e-05
9.577776420263325e-05
0.00014802526070658315
0.00010410845623316583
2.0497669529972944e-05
1.7465296278904567e-05
0.00012801641027481618
0.0002513705231972583
0.0002316105106962146
7.1420211304675e-05
5.575528898864572e-06
0.00016997254174974316
0.00039128882083755477
0.0003986354976191312
0.00016661297152792786
1.6811212967011955e-06
0.00019971399521180312
0.0005674552140272609
0.0006183655900162054
0.00027555311054278336
6.677636166701313e-06
0.000176947904612259
0.0005978807943064203
0.0007668321572065704
0.0004670773469241957
6.041473305667968e-05
0.00010700695269628997
0.0006248196744290243
0.0009901139563645938
0.000723705930740472
0.0001659490140079204
6.258061821424591e-05
0.0005942883893614631
0.0011119727348421055
0.0009551938756005069
0.00032053609026927454
3.207186237276803e-05
0.0004884524348883157
0.001128344969235892
0.001138365977038145
0.0005057479639352089
1.1565986330312886e-22
1.0543381118498676e-23
9.246859036587465e-25
8.589488012554185e-26
3.388352011603498e-08
3.336450945847057e-08
3.128771269075363e-08
3.310630155213617e-08
3.353069725003388e-08
3.584933381144379e-08
4.1867256118141173e-08
3.991227133159718e-08