# vtk DataFile Version 4.1 
COMMENT
ASCII
DATASET STRUCTURED_POINTS 
DIMENSIONS 400 400 1 
ORIGIN 0 0 0
SPACING 0.002506265664160401 0.002506265664160401 0 
POINT_DATA 160000
SCALARS U double 1
LOOKUP_TABLE default
8.116136178961811e-07
1.8994465333941018e-10
8.700378663334908e-10
1.9387956496072706e-09
2.8102385940463563e-09
2.8222553350858416e-09
1.686647203592997e-09
4.71929402710085e-10
2.1733172528332623e-12
4.695596924477693e-10
1.4722541232536522e-09
2.3484428499618768e-09
3.227492855394802e-09
4.217726763755226e-09
4.2446588802109154e-09
3.279515530363325e-09
2.039187396770803e-09
9.516709155034464e-10
8.755539985315608e-10
1.971994796021311e-09
3.748368214289539e-09
5.4397234175204445e-09
7.705035230077157e-09
1.0141054901932908e-08
1.187657116435712e-08
1.2933202151061549e-08
1.3435406750824518e-08
1.2694454876105939e-08
1.1686323666333127e-08
1.2822591203284925e-08
1.4424216584342499e-08
1.5139890596428e-08
1.4287357417534992e-08
1.1725975893287885e-08
7.973921558162444e-09
3.647346189260888e-09
1.1077841502600715e-09
1.1401495772237066e-09
4.290165991853477e-09
9.9743582397427e-09
1.61440866203104e-08
2.1716109050272258e-08
2.7282143342641793e-08
3.302929926177634e-08
3.823115234631251e-08
4.349207907301256e-08
4.6918041727883185e-08
4.6637582984305796e-08
4.1578778128014975e-08
3.139842831399465e-08
2.0124657145161634e-08
9.932770394384535e-09
3.2733994194397197e-09
4.2484288229036397e-10
3.0525559978154505e-10
1.2324143931973622e-09
2.019920429871701e-09
1.997886405795829e-09
1.633811770860966e-09
1.6510458687833685e-09
2.1717103498425493e-09
2.9764042673969982e-09
5.3041168828154244e-09
1.0703266035073036e-08
1.8376949735415634e-08
2.756644310226078e-08
3.567392868191981e-08
3.948753672254333e-08
3.7683671596259856e-08
3.353935657786025e-08
3.027166881160249e-08
2.9823871954831864e-08
3.181295796326871e-08
3.352106622148129e-08
3.341980770816516e-08
3.144183167640629e-08
3.047841682522418e-08
3.139635027637616e-08
3.354249398628255e-08
3.44625095851672e-08
3.1573320008847514e-08
2.595522392338503e-08
2.1534434273385468e-08
1.9074287577476724e-08
1.9900007346548825e-08
2.2771694957045704e-08
2.5280877054901033e-08
2.61512418893175e-08
2.4742466579103304e-08
2.0178862695377532e-08
1.393504046339886e-08
9.754874650151719e-09
1.0415718330222054e-08
1.7319447183065914e-08
2.8126264072232695e-08
3.8184380442613806e-08
4.3018031589966285e-08
4.212053443021659e-08
3.6048017049064326e-08
2.9125783645487002e-08
2.289635539780197e-08
1.9343943073132043e-08
1.8870586408579145e-08
2.1686190517492702e-08
2.6092923038052194e-08
2.8669563355604007e-08
2.7730800864022494e-08
2.3046168209908615e-08
1.72213396848537e-08
1.4437737572554914e-08
1.621724532810769e-08
2.0441188897806363e-08
2.4904712090241144e-08
2.5016926342576097e-08
2.316005807263545e-08
1.9126032342430462e-08
1.478316502325254e-08
1.0031961929623508e-08
5.537429823019504e-09
1.8481196395609541e-09
5.2897060026613905e-28
5.097551829228392e-29
3.269299973858749e-30
3.89029034322679e-30
1.7460479370528252e-11
5.628162968200879e-11
1.1599376515798873e-10
1.950866193829387e-10
2.910202405610043e-10
4.03800466414704e-10
5.335734939786e-10
6.830755305288495e-10
8.520447722776444e-10
1.0454706473385244e-09
1.2649250586982036e-09
1.504876997574547e-09
1.7725018464391279e-09
2.0512315109140173e-09
2.352396132130555e-09
2.6543225901350452e-09
2.9667309580586645e-09
3.2826125619583413e-09
3.598080969660435e-09
3.926827531352283e-09
4.2636943628031134e-09
4.598885209984218e-09
4.973519735346116e-09
5.3283990305770825e-09
5.71091761883058e-09
6.102900665941458e-09
6.450269405977021e-09
6.838141631897279e-09
7.152880734811196e-09
7.457036801596825e-09
7.713856097047214e-09
7.942857175963157e-09
8.118915645360627e-09
8.225589036803651e-09
8.385355274513347e-09
8.43274331832813e-09
8.477589007130551e-09
8.572355234263094e-09
8.632781403957843e-09
8.660276184554433e-09
8.738024706255773e-09
8.901777520061806e-09
8.94145420736034e-09
9.026018070011048e-09
9.199109795663278e-09
9.315366706257769e-09
9.381082168648853e-09
9.336546905648438e-09
9.429256149877153e-09
9.516759161014157e-09
9.233763107271535e-09
8.872354437857819e-09
8.803879385536163e-09
8.740205206206009e-09
8.010198389233998e-09
7.215977598754298e-09
7.2061494153672164e-09
7.026449992060375e-09
6.096521370222305e-09
5.406601453538811e-09
5.4336123686864755e-09
5.368564788152379e-09
4.78237954396461e-09
4.517438069908422e-09
4.8484011646237206e-09
4.904289009278184e-09
4.583134327762084e-09
4.5789178617226765e-09
5.007535031176697e-09
5.250706554344376e-09
4.870587649306754e-09
4.359525122867451e-09
4.161593638273287e-09
3.9885566225828185e-09
3.7007029829495266e-09
3.3801948300579125e-09
2.9741456514150107e-09
2.48079647719968e-09
1.9527795784023087e-09
1.6166412324776458e-09
1.5461166901204327e-09
1.3915741206092685e-09
1.1009357344204399e-09
9.872051173701713e-10
9.96146986877654e-10
9.691362951515173e-10
1.000925333746791e-09
1.1362931898435067e-09
1.254474876386005e-09
1.246909779489736e-09
1.0466115448421546e-09
7.988925494743186e-10
6.318860708191304e-10
4.1780890894077344e-10
1.7021654283534787e-10
5.0975983132848433e-11
3.2055848664655433e-11
5.358288180409068e-11
9.267702179108398e-11
9.705458283045689e-11
6.750335462887521e-11
1.0687085638281626e-10
2.1568230843585288e-10
3.203400254034887e-10
4.989305707667106e-10
6.927049013616448e-10
6.781133463746774e-10
5.140618405262544e-10
3.4130341559926166e-10
1.8128481591510434e-10
7.395376956965769e-11
3.591530192252776e-11
6.832523494997299e-11
1.199245690348845e-10
1.1963512232478554e-10
1.1448687098708836e-10
1.1194045766664193e-10
7.413935476957904e-11
5.6767275778535464e-11
6.820170566608493e-11
8.234874028741677e-11
1.2105248371671835e-10
1.5990160054165932e-10
1.6517674587280445e-10
1.708154954979898e-10
1.7061009648262264e-10
1.4092731132091576e-10
1.1153335219524394e-10
1.169386534779836e-10
1.8332463547839116e-10
2.1715513305527495e-10
1.449476016064631e-10
9.842647187950674e-11
1.3018148421344872e-10
1.722471178491882e-10
1.8203375194820044e-10
1.5095995703505334e-10
1.4666445187683162e-10
1.8585994328566304e-10
1.7444874221027879e-10
1.374785284969572e-10
1.327491791717091e-10
1.7535919380679844e-10
2.2395026000844676e-10
1.9461278955361297e-10
1.3196516748095535e-10
1.493845746658542e-10
2.6473397950913404e-10
3.313720505836768e-10
2.4317205899885025e-10
1.5793760681859365e-10
1.475442168753178e-10
2.214826150101155e-10
3.2404911996203943e-10
3.183154588864801e-10
2.510307332769881e-10
2.0689494122883939e-10
1.8766868352103244e-10
2.2381014086047241e-10
3.0624423028420033e-10
3.285299861839711e-10
3.1151170716102707e-10
3.100976448385574e-10
2.763255358684017e-10
2.2969364569646417e-10
2.5454909728386554e-10
3.108236687148212e-10
3.1844911485402734e-10
3.326044936196944e-10
3.488117231344843e-10
2.952323907149686e-10
2.315967035031044e-10
2.461952965762416e-10
3.553348638467283e-10
4.6379939054292714e-10
4.338121876446221e-10
3.2310478402676635e-10
3.1484807298542877e-10
4.632003811494676e-10
5.556007604252679e-10
5.57006511318172e-10
5.138457205814199e-10
4.999563529598651e-10
5.612402651700501e-10
6.372712724447838e-10
5.453562636566417e-10
3.6454172620444905e-10
3.5380829348661935e-10
4.726985938045454e-10
4.37818580514244e-10
2.7792187899366727e-10
1.3184233365380423e-10
1.1729934985101862e-10
1.490494789200102e-10
1.6748590756102734e-10
1.0387596842492549e-10
3.4581637189411384e-11
3.197694019970463e-11
2.946172513992437e-11
4.315796868105234e-11
1.2517837460876696e-10
2.816184178338388e-10
2.823608056324114e-10
1.937280846555172e-10
2.2764941843973425e-10
3.0801514306899413e-10
2.590177656081793e-10
1.915769644989023e-10
2.2355210115966962e-10
2.755417213565312e-10
3.090617964919696e-10
3.880525830605642e-10
4.862983362092096e-10
4.3225934316105e-10
1.709056683660394e-10
6.094523121335909e-11
3.3120278505543113e-10
8.919108559199788e-10
1.2422183403416778e-09
1.2032924199212068e-09
6.67467540344024e-10
2.4204199003204053e-10
8.812993297795942e-10
2.4898388163770915e-09
3.5449677388127537e-09
2.8679412536695526e-09
1.5443648879399014e-09
5.4994661010222e-10
4.433465562681869e-10
1.3600025771873441e-09
2.359889656308585e-09
2.500092223962665e-09
1.6178812998937871e-09
6.050692674106358e-10
1.3548375132389824e-10
3.749207488382732e-10
1.255332621921846e-09
2.3695453284028855e-09
3.060092492138368e-09
2.7256545705854866e-09
1.4351800388562803e-09
2.396583330210039e-10
5.349651274324945e-10
2.353889518101009e-09
4.3664347600915436e-09
5.046903653529238e-09
3.791842468866466e-09
1.678203230565994e-09
3.3393246081067764e-10
3.983801957046002e-10
1.1234632500444874e-09
1.4626338704800152e-09
1.0480055067547817e-09
3.7206482011834015e-10
6.194298915490537e-11
2.4940020844688942e-11
1.7382259243780563e-10
6.463086529123064e-10
1.6059323877173924e-09
3.002714254540654e-09
3.790475351777574e-09
3.140936256091476e-09
1.5535924967922364e-09
2.852758893565418e-10
4.702937499357502e-10
1.947897182959089e-09
3.456932682115799e-09
4.076024242586862e-09
3.5924847695846333e-09
2.470947985741344e-09
1.6754602000556372e-09
1.4114278494342464e-09
1.2029830910188417e-09
8.664792209669831e-10
3.422883943139514e-10
4.588103789162726e-31
1.6587522533304546e-10
1.199100193950467e-09
5.492455596528657e-09
1.2239408683540147e-08
1.774073438722536e-08
1.7816594782649873e-08
1.0647622627947648e-08
2.979239627816252e-09
1.3719918373967507e-11
2.964279901468641e-09
9.294182140432713e-09
1.4825467457822885e-08
2.037481572046271e-08
2.662605601965438e-08
2.6796075577971755e-08
2.0703229279612025e-08
1.28731709999751e-08
6.007796267463733e-09
5.527278346589137e-09
1.2448991328822253e-08
2.36630459122262e-08
3.434038963618621e-08
4.8641059784249007e-08
6.401939031177285e-08
7.497551805893528e-08
8.164591598178362e-08
8.481627967663603e-08
8.013873007962055e-08
7.377450603902056e-08
8.094764094955628e-08
9.105852994431195e-08
9.557650310970343e-08
9.019455272475035e-08
7.40248262886096e-08
5.0338510291484744e-08
2.302530471932897e-08
6.993322349845248e-09
7.197641813789498e-09
2.70833570857024e-08
6.296705218880391e-08
1.0191588474446848e-07
1.370914638355244e-07
1.7222924045716552e-07
2.0851041845370336e-07
2.4134915822819633e-07
2.745608235603751e-07
2.9618855780663346e-07
2.944180518834274e-07
2.6248236020856576e-07
1.982149053375809e-07
1.2704479890165516e-07
6.270451258814537e-08
2.066461892830294e-08
2.6819874821248956e-09
1.927045812910868e-09
7.780099686563218e-09
1.2751540707469479e-08
1.261244228022565e-08
1.03140782163383e-08
1.0422875225351175e-08
1.3709774167989868e-08
1.8789720434685346e-08
3.348432014853823e-08
6.756856880633575e-08
1.1601170975094158e-07
1.7402399430206603e-07
2.2520567991470687e-07
2.492805778429549e-07
2.378929710598255e-07
2.1173035550320374e-07
1.9110179362793096e-07
1.8827490017047424e-07
2.0083178648745232e-07
2.1161489044801087e-07
2.109756563299567e-07
1.984889061023875e-07
1.9240697163043914e-07
1.982017869093043e-07
2.1175016162557425e-07
2.1755812127942543e-07
1.993189778214938e-07
1.6385254069218561e-07
1.3594457048332456e-07
1.204139286445174e-07
1.2562660885338773e-07
1.4375526428102386e-07
1.5959546134526574e-07
1.6508998105618157e-07
1.561965338439984e-07
1.2738699271777135e-07
8.797041363681412e-08
6.158147586317181e-08
6.575331103205816e-08
1.0933580972779224e-07
1.7755808395328322e-07
2.4105389222407064e-07
2.715682127189065e-07
2.659024095525346e-07
2.2756725959442583e-07
1.8386794365754617e-07
1.445422322533294e-07
1.2211623482400388e-07
1.1912798504548088e-07
1.369025913517352e-07
1.6472182041236364e-07
1.8098787397163975e-07
1.7506156719785882e-07
1.4548798444427077e-07
1.0871646762962826e-07
9.1143886490563e-08
1.0237772780857481e-07
1.290430298563826e-07
1.5722077232848655e-07
1.5792916885017437e-07
1.4620695891437976e-07
1.2074058778759457e-07
9.33245328833162e-08
6.333069809561932e-08
3.4957199679134745e-08
1.166698077192684e-08
3.339334581004595e-27
3.2180297153076494e-28
2.063873956868522e-29
2.4558985067883464e-29
1.1022613077850994e-10
3.552998827871859e-10
7.322561801697784e-10
1.2315608732677433e-09
1.8371795192184456e-09
2.549148970937094e-09
3.368392154599377e-09
4.312182452834632e-09
5.378867126451634e-09
6.599943899200244e-09
7.985336025792298e-09
9.500126841890074e-09
1.1189613766305126e-08
1.2949204198863209e-08
1.4850424103518681e-08
1.6756453401985098e-08
1.8728653871874472e-08
2.072278050740899e-08
2.2714298679730927e-08
2.4789640411939896e-08
2.6916244534912383e-08
2.903226834921309e-08
3.139729586709369e-08
3.363761073913207e-08
3.605240949919413e-08
3.852695637141414e-08
4.071985791523742e-08
4.3168453614837905e-08
4.515536776436911e-08
4.707547234358121e-08
4.869674496995258e-08
5.0142404183388314e-08
5.1253842389674086e-08
5.1927260051713356e-08
5.293584714935652e-08
5.3235002779853276e-08
5.351810879623973e-08
5.411635780897467e-08
5.449782172768359e-08
5.467139332428486e-08
5.516221139056047e-08
5.619596531488855e-08
5.644643998000043e-08
5.698028256163116e-08
5.807299203332096e-08
5.880690942236605e-08
5.9221764077726566e-08
5.8940617746084347e-08
5.952588124669473e-08
6.007827835701586e-08
5.829175466727747e-08
5.601022055736498e-08
5.557794490718941e-08
5.517597665253162e-08
5.0567522029425454e-08
4.555369148899979e-08
4.549164722295472e-08
4.435722406572594e-08
3.848668456276031e-08
3.413129423530948e-08
3.4301811241305275e-08
3.389117285236851e-08
3.019064836990014e-08
2.851810130242034e-08
3.060743576952124e-08
3.096024972972727e-08
2.8932834721598924e-08
2.890621662439666e-08
3.1612030775977095e-08
3.31471464818799e-08
3.074749666420178e-08
2.7521213829700768e-08
2.6271693627930925e-08
2.517932953435313e-08
2.3362140426656308e-08
2.1338806884288554e-08
1.877546203459644e-08
1.5661001690035828e-08
1.2327687723963344e-08
1.0205682451868518e-08
9.760468591240966e-09
8.784857949843705e-09
6.95008903626057e-09
6.232119867002632e-09
6.2885689287277e-09
6.1180533331680154e-09
6.318734119254572e-09
7.173296854485573e-09
7.919365147343913e-09
7.871607503229758e-09
6.607146262593095e-09
5.043322853149667e-09
3.989028892115753e-09
2.6375827639111906e-09
1.0745587513996906e-09
3.218059060193187e-10
2.0236512939561592e-10
3.382629773152929e-10
5.850600838227605e-10
6.126951564560631e-10
4.26141427014293e-10
6.746642369938133e-10
1.3615792460079504e-09
2.022272171594329e-09
3.1496951014732782e-09
4.372971636579611e-09
4.280856717273897e-09
3.245217182165723e-09
2.154611802153411e-09
1.1444315704725028e-09
4.668622036751246e-10
2.267294432559696e-10
4.3132986920050904e-10
7.570709228240219e-10
7.552436768335926e-10
7.227433191293537e-10
7.066680853560223e-10
4.680337831079104e-10
3.58365714429711e-10
4.3055004210001155e-10
5.198587520848652e-10
7.641913270574057e-10
1.0094416286615825e-09
1.0427430545163559e-09
1.0783398752234699e-09
1.0770432133020416e-09
8.896589789019682e-10
7.040980722436275e-10
7.382211586403373e-10
1.1573087322717905e-09
1.3708770296294152e-09
9.150386396419994e-10
6.213557446635905e-10
8.218217266172343e-10
1.0873775533513097e-09
1.149159523203751e-09
9.529939936557773e-10
9.258769309862896e-10
1.1733138581333304e-09
1.1012761714591464e-09
8.678871833794473e-10
8.380313090841537e-10
1.1070237545933678e-09
1.413773936197808e-09
1.2285696364508334e-09
8.330819274937052e-10
9.430487739760356e-10
1.6712371766919213e-09
2.091916161570672e-09
1.535119088547445e-09
9.97043147246907e-10
9.314307929232749e-10
1.3981959583812249e-09
2.0456872871363883e-09
2.0094913006378144e-09
1.5847300551392254e-09
1.3061055407101473e-09
1.1847322409564674e-09
1.4128893790673063e-09
1.933286931082071e-09
2.073974514290834e-09
1.9665399468084255e-09
1.9576131232557697e-09
1.7444134269007068e-09
1.4500313131302765e-09
1.6069411091955685e-09
1.9621964340020054e-09
2.0103350564045125e-09
2.0996964420762833e-09
2.202010941131214e-09
1.863770370699492e-09
1.4620451126498856e-09
1.5542044626376049e-09
2.2431908277755676e-09
2.927915734276384e-09
2.738609743403679e-09
2.0397257958112437e-09
1.987602065887825e-09
2.9241342523170475e-09
3.507447921655906e-09
3.516322276046473e-09
3.2438528401681372e-09
3.156170754276015e-09
3.5430495093519253e-09
4.023025091536245e-09
3.442775513950729e-09
2.3013127609004296e-09
2.2335537530661534e-09
2.9840954485742283e-09
2.763901671249739e-09
1.7544909695820316e-09
8.323064907368863e-10
7.404981960997215e-10
9.409333505262608e-10
1.057320544219439e-09
6.557578310064347e-10
2.1831016104913032e-10
2.0186698873219987e-10
1.8598870622734618e-10
2.724516205438285e-10
7.902376330833703e-10
1.777826822222615e-09
1.7825134366526835e-09
1.2229845894582236e-09
1.4371263260357272e-09
1.9444665132728947e-09
1.6351513323325685e-09
1.20940479896842e-09
1.411260402153032e-09
1.739465290079368e-09
1.951073923907646e-09
2.4497342748544622e-09
3.0699491615817204e-09
2.7288068029750333e-09
1.078909126853702e-09
3.8474069832178963e-10
2.0908476064722256e-09
5.6305374303382575e-09
7.841990951811009e-09
7.59625579735798e-09
4.213650887303494e-09
1.5279850845444079e-09
5.563548005633005e-09
1.5718085005995378e-08
2.2379000558456682e-08
1.8105005079393755e-08
9.749409652242109e-09
3.471753877997426e-09
2.7987991884062866e-09
8.58555018742463e-09
1.489772991675046e-08
1.5782813666730797e-08
1.0213510864266892e-08
3.819737292679161e-09
8.552943693515164e-10
2.3668344159427333e-09
7.924780002778405e-09
1.495868513753422e-08
1.9318035208249564e-08
1.720676453256562e-08
9.060137427881698e-09
1.5129373138701884e-09
3.3771773871138786e-09
1.4859851688740652e-08
2.7564833627309555e-08
3.186056066017523e-08
2.3937494211657377e-08
1.0594316733223149e-08
2.1080797563116275e-09
2.514931384153351e-09
7.092302822640485e-09
9.233450518015804e-09
6.61594619441747e-09
2.348805244698512e-09
3.910394370343026e-10
1.5744367270268582e-10
1.0973233552023334e-09
4.080077103692895e-09
1.013807866516935e-08
1.8955812557480813e-08
2.392886374832175e-08
1.9828393206390414e-08
9.807662555759022e-09
1.8009160470843683e-09
2.96891392754273e-09
1.2296865685964485e-08
2.1823244701664387e-08
2.573150322425331e-08
2.2678970469758687e-08
1.559882922131828e-08
1.057700027624922e-08
8.910192407361343e-09
7.594303037223386e-09
5.469990250575724e-09
2.1608298669794382e-09
2.525578017737223e-10
4.645912373555561e-10
2.4183504181478262e-09
1.29418545222396e-08
3.2063795396026866e-08
5.087227476425882e-08
5.721983450115218e-08
3.9637143559686015e-08
1.538232452355405e-08
1.1593212899339342e-09
6.379046968229915e-09
2.4328430967723415e-08
4.208818776510235e-08
5.822489880757272e-08
7.69543003967141e-08
7.587217439624854e-08
6.062480485343876e-08
3.753580390403448e-08
1.6706471152358058e-08
1.524404433360322e-08
3.240022595323788e-08
5.7504391879764854e-08
8.15537094351145e-08
1.1175472608653341e-07
1.5085720876739753e-07
1.864440434463592e-07
2.1360881088534273e-07
2.3336072761990518e-07
2.2818874282070753e-07
2.2326952967428704e-07
2.501196844103356e-07
2.9115089661464255e-07
3.1300194990564655e-07
2.9629593833557964e-07
2.4273647624012854e-07
1.6487460061732233e-07
7.451944316753516e-08
1.2682663931248068e-08
4.3149736159556034e-09
5.108399765108178e-08
1.562626124432793e-07
2.820992516029035e-07
4.1171213635177516e-07
5.464585844941589e-07
6.677120086176026e-07
7.881063815363229e-07
8.862197708259607e-07
9.660200770530196e-07
9.672254258169133e-07
8.550066751212787e-07
6.618179005101605e-07
4.3463855955429925e-07
2.2688669838522055e-07
8.168202674869255e-08
2.1686988573689185e-08
2.394963728285656e-08
5.1429636192066634e-08
7.075828647822835e-08
6.766179395072175e-08
4.800042353952238e-08
4.368886025513675e-08
4.445699014321381e-08
4.5140592285408714e-08
6.023795763655163e-08
1.3543905085640579e-07
2.6802072221180987e-07
4.4335455698233324e-07
6.335398954506084e-07
7.43415294875993e-07
7.449446421487992e-07
6.810341080393183e-07
6.426647040710281e-07
6.570676063037191e-07
7.143295205414608e-07
7.609861180151041e-07
7.5451660237013e-07
7.118055540008347e-07
6.831703403670806e-07
7.070428657159403e-07
7.481841756634601e-07
7.469047325307466e-07
6.503182970908529e-07
4.7252962865080356e-07
3.242469561384452e-07
2.3731146616188755e-07
2.397268610437958e-07
3.167028762652563e-07
4.047662660989553e-07
4.811856479388034e-07
5.054597670537318e-07
4.435238096777875e-07
3.290861932291938e-07
2.2764553131457178e-07
2.3190542440447656e-07
3.7124009786336556e-07
5.864249414928318e-07
7.85399877516234e-07
8.659351413131855e-07
8.111909314370496e-07
6.674640574997086e-07
5.066199110876269e-07
3.705139892807933e-07
2.797881411776963e-07
2.655865037793345e-07
3.2077146020788405e-07
4.4706865390064476e-07
5.570619257499476e-07
5.718127074889011e-07
4.790183851511653e-07
3.2975484183614766e-07
2.2505331040880185e-07
2.1709224843583611e-07
2.869703061178833e-07
3.626412189246121e-07
3.838215098761267e-07
3.689317214960111e-07
3.3693608852193e-07
2.8793938708119893e-07
2.2797812557433618e-07
1.3583355060817996e-07
4.9799637167969925e-08
1.0632680557740617e-26
1.0119197546992385e-27
6.62193792111356e-29
5.0302918442517627e-29
2.989749261009186e-10
9.541751212550219e-10
1.948389635857165e-09
3.2447313725537906e-09
4.797878087107854e-09
6.6311723986036715e-09
8.729018602020168e-09
1.1201768447310276e-08
1.4005748730884435e-08
1.7320054384110442e-08
2.101360059211328e-08
2.5244079581662617e-08
2.977320918224672e-08
3.46841590443588e-08
3.972620794751465e-08
4.4994318422264626e-08
5.0145312205754424e-08
5.5585944208885056e-08
6.08785196015583e-08
6.660206038959832e-08
7.238269705197843e-08
7.847343638012468e-08
8.523669778500675e-08
9.175279384117076e-08
9.926932187169541e-08
1.0619877593295618e-07
1.1348311502069326e-07
1.2038426049462343e-07
1.2670055850485371e-07
1.3252113517134191e-07
1.3724428768363192e-07
1.4175664595335067e-07
1.4483530291481983e-07
1.4720073065855623e-07
1.4963983180510718e-07
1.5120006736429866e-07
1.5176613709881077e-07
1.538379741648593e-07
1.55496540108329e-07
1.5583602931549332e-07
1.5852827309772654e-07
1.6140232516223166e-07
1.631281215230305e-07
1.6539909771062543e-07
1.6919444528076908e-07
1.7280000121969932e-07
1.7391820858510047e-07
1.751065067901903e-07
1.7775069642999614e-07
1.7996844419902213e-07
1.7671846771823477e-07
1.702903227400766e-07
1.7109936111096518e-07
1.7088979751391812e-07
1.5730032903618058e-07
1.440814286012483e-07
1.4447558566558876e-07
1.4184930266379476e-07
1.2312401932778952e-07
1.097922409319865e-07
1.1242706859332378e-07
1.089352438205921e-07
9.53868369936115e-08
9.07342555178538e-08
9.600541893990573e-08
9.609128302315537e-08
8.889194772251498e-08
8.80379400714096e-08
9.642176568138587e-08
9.974778919175528e-08
9.314279144357877e-08
8.560106381525347e-08
8.1967010788262e-08
8.025454679680814e-08
7.62919787931476e-08
6.887010198851044e-08
6.102874840696022e-08
5.326274263265142e-08
4.492338009184045e-08
3.850311510013865e-08
3.514561969039195e-08
3.2518403009023554e-08
2.8359693885387044e-08
2.3840978440180237e-08
2.1895239143128357e-08
2.2276527326184387e-08
2.1879114999943372e-08
2.059307005898137e-08
2.054556909112684e-08
1.9930001429153138e-08
1.6120203111346924e-08
1.1875923026707177e-08
9.627645554604563e-09
7.344893736888379e-09
3.777783697062948e-09
1.353028334979164e-09
7.970671052459715e-10
9.067947546812585e-10
1.2607172931643485e-09
1.833743377212119e-09
2.4010583816160836e-09
3.348339382066527e-09
5.350522935425029e-09
7.796999461552017e-09
9.697094388677798e-09
1.1093168466967654e-08
1.0713716827525532e-08
7.47583315453912e-09
4.033226584322001e-09
1.893928754142412e-09
5.376762784577246e-10
2.0280843463222643e-10
9.222055494423687e-10
1.6315666282393116e-09
1.7496138868075478e-09
1.3597395401992574e-09
8.598623329030008e-10
4.839049676061087e-10
5.016346627945139e-10
9.447642106946188e-10
1.4402310198318926e-09
2.0464961091129035e-09
2.4554296257970323e-09
2.2488551320111346e-09
2.2177443789096613e-09
2.6670285798641e-09
2.093465533386242e-09
1.2154236529752976e-09
1.3994636508347346e-09
2.4223034148963264e-09
2.689058516962968e-09
1.7661159883142913e-09
1.3954063775576924e-09
2.0996079997541406e-09
2.3293277017666034e-09
1.9373921808025185e-09
1.8749749843007056e-09
2.396873423312763e-09
2.6832443153123804e-09
2.1916223280488763e-09
1.6122085929857768e-09
1.475464587856168e-09
2.491698233595388e-09
3.801058276772999e-09
3.208479432210499e-09
2.216132500939773e-09
2.5015292546010845e-09
3.990279731503837e-09
4.986831732662116e-09
4.0933258553413834e-09
2.8788578064132076e-09
2.726413890648412e-09
3.5301273645411545e-09
4.98869866890262e-09
5.476660587167098e-09
4.811928938818289e-09
3.841138102916312e-09
3.843866876867633e-09
4.677812318538436e-09
5.2397969511304985e-09
5.197358471200626e-09
5.688685166762575e-09
6.367009225470194e-09
6.234103605020909e-09
5.547696560855599e-09
5.332903937516933e-09
5.688547784567033e-09
6.042361293875916e-09
6.593837043989711e-09
7.26970896497873e-09
6.557248165228174e-09
4.863599841565174e-09
4.8719343396213015e-09
8.127336486314585e-09
1.1663465764737628e-08
1.1440225148075432e-08
9.42082168788897e-09
9.636978561511877e-09
1.359738230147965e-08
1.6069863122716744e-08
1.5341646519272316e-08
1.248010875574517e-08
1.1994702381537663e-08
1.491008758974548e-08
1.731094310773093e-08
1.4637008056625664e-08
1.0053410576200728e-08
9.74440682126631e-09
1.3466908797154136e-08
1.4884636765411683e-08
1.1224972306611348e-08
5.430167418995853e-09
3.3852385437803663e-09
4.713095451001569e-09
5.909191849732646e-09
4.6635772525429415e-09
2.6781586902355078e-09
2.2686548857147157e-09
2.509000793314066e-09
3.5659910577509325e-09
6.488984055953597e-09
1.0844161745961013e-08
1.0142109690809073e-08
6.853423667800978e-09
8.335342029853727e-09
1.2438133431578764e-08
1.129566695224344e-08
7.304779096237259e-09
7.0738103964542425e-09
1.0493647646757836e-08
1.4016920269498992e-08
1.695353474001986e-08
1.9818840550935715e-08
1.6104319373593218e-08
7.597046637979687e-09
5.7714658094252016e-09
1.680306605811888e-08
3.272929501140722e-08
4.082055312097141e-08
3.781816075974821e-08
2.352323148027277e-08
1.5369313095468528e-08
3.653791362047389e-08
8.181063064267242e-08
1.0854517201112019e-07
9.145764273477319e-08
5.4461590378751156e-08
2.3717592772924208e-08
1.7704734892312364e-08
4.010164363936071e-08
6.794553992064923e-08
7.590365242830227e-08
5.693624012160041e-08
2.8454597329372523e-08
1.1921966562003346e-08
1.6567548972962207e-08
4.262008305851281e-08
7.737132356767864e-08
9.833860564550506e-08
8.813784969249986e-08
4.842437898456039e-08
1.1351961000068387e-08
1.5731466651158732e-08
6.851760617029218e-08
1.3529077227676792e-07
1.6315347794784254e-07
1.3306621693953307e-07
7.168197435207556e-08
2.09440700180501e-08
9.439953570773271e-09
2.745405002375562e-08
4.4299108035223647e-08
3.993977115900315e-08
2.0716019358241545e-08
5.600099763409805e-09
5.20914589151075e-10
7.975696919809782e-09
2.9435166154029942e-08
6.307817920439898e-08
1.0359533598871703e-07
1.2334364672031836e-07
9.999365960968875e-08
4.91509541499194e-08
8.476769704973493e-09
1.1885385853562301e-08
5.763933364576586e-08
1.0990089297927285e-07
1.3741428667706694e-07
1.2804406557013928e-07
9.39416578448252e-08
6.483228568473927e-08
5.10675349123994e-08
4.175334515993284e-08
2.7765230398173795e-08
9.343518886563946e-09
1.6284973238295834e-09
3.591027232730322e-10
1.8471110788673704e-09
1.0619370448432493e-08
2.9637566018785868e-08
5.21351035597871e-08
6.060447112964421e-08
4.270757754956699e-08
1.6395420873993262e-08
1.306636549456368e-09
1.02025282648791e-08
3.4541152361425485e-08
5.217568030032151e-08
6.617792957227886e-08
8.36583010677189e-08
8.149342229387677e-08
6.031181650461863e-08
3.3402025165930864e-08
1.3466768682386745e-08
1.6348836860666727e-08
3.6334839675610564e-08
6.559627848207028e-08
8.675750826496046e-08
1.1434432423995426e-07
1.6331388864102444e-07
2.092377892583882e-07
2.4535330498356855e-07
2.726829051412649e-07
2.7960438770980516e-07
2.837457774333601e-07
3.2675857275102457e-07
3.946169580941688e-07
4.520093002858434e-07
4.414989919999756e-07
3.5808863310925027e-07
2.536724153668905e-07
1.2152798558633987e-07
2.9678040827167502e-08
8.954937431511195e-09
5.770971928297563e-08
1.7765731041453583e-07
3.4136079821586996e-07
5.19566701031775e-07
7.041954623217403e-07
8.782005085192237e-07
1.056128111943427e-06
1.213449884345485e-06
1.32692234644128e-06
1.3409068815062667e-06
1.2108511797173301e-06
9.66405289565121e-07
6.640426764852366e-07
3.81337465326332e-07
1.783797148431347e-07
8.27587109304955e-08
8.136479357825411e-08
1.1208923891246814e-07
1.2520810850678613e-07
1.0309730325580042e-07
6.678322599411738e-08
5.265680392883387e-08
5.1803055257184725e-08
3.941116857123956e-08
2.9021767418232217e-08
8.899894190700804e-08
2.401290440255809e-07
4.760914250913118e-07
7.481760081380822e-07
9.324025659259614e-07
9.782834091072315e-07
9.411449383824347e-07
9.315541051767208e-07
9.990357132612569e-07
1.116960681975924e-06
1.1954550123020946e-06
1.1596467507935545e-06
1.0540932406804324e-06
9.857720017450565e-07
1.0203417760664183e-06
1.0797412159119478e-06
1.0521522598178694e-06
8.670652533751449e-07
5.52211817673746e-07
2.887497284090694e-07
1.4688929288611006e-07
1.3907492543984747e-07
2.4629167192068483e-07
4.0641933077504225e-07
5.708120349703424e-07
6.84885805609514e-07
6.675341889383215e-07
5.3049845628312e-07
3.8153068574894367e-07
3.401289903121419e-07
4.937939233418322e-07
7.608841425832913e-07
9.965408322214225e-07
1.063040927821581e-06
9.453882570301754e-07
7.387921763964344e-07
5.339320267494231e-07
3.615844973103398e-07
2.4099609402665255e-07
1.9303954406284243e-07
2.660184160123168e-07
4.6049480038712795e-07
6.617698107704577e-07
7.30625617556335e-07
6.08858623940318e-07
3.7649932564523984e-07
1.9403800583904982e-07
1.5665741099123756e-07
2.3425305149923569e-07
3.3248783050390503e-07
3.481933614423176e-07
3.461984024566068e-07
3.461958410062429e-07
3.487928236840033e-07
3.091641269687893e-07
2.035677530891865e-07
7.76976408449808e-08
1.755105065664623e-26
1.6553914602911322e-27
1.1939779916961895e-28
4.554192893854032e-29
3.047059037183567e-10
9.60128505193461e-10
1.936122732167893e-09
3.1861195820377106e-09
4.662569156768736e-09
6.386771988704766e-09
8.397327269674597e-09