# vtk DataFile Version 4.1 
COMMENT
ASCII
DATASET STRUCTURED_POINTS 
DIMENSIONS 400 400 1 
ORIGIN 0 0 0
SPACING 0.002506265664160401 0.002506265664160401 0 
POINT_DATA 160000
SCALARS U double 1
LOOKUP_TABLE default
6.658943279844688e-07
2.391612218487033e-10
9.440105380816876e-10
1.6714704958879834e-09
1.898472484501083e-09
1.5987257815545076e-09
1.0215783884298379e-09
3.9893001813586285e-10
8.945512517615104e-11
1.480511141317479e-10
5.130113886785158e-10
9.617108611051159e-10
1.2644870242178037e-09
1.352581148998096e-09
1.1116928994930473e-09
7.930357359537237e-10
4.2528322233553353e-10
1.7475304056442275e-10
2.801252071081123e-10
7.497115096806256e-10
1.110670214830554e-09
1.096931939727852e-09
8.183529638211453e-10
3.4858404201756414e-10
6.114763579453677e-11
4.2384322387776275e-11
2.9208993548723455e-10
5.685140974285159e-10
7.09519850744271e-10
6.303240236576102e-10
3.7911855373801454e-10
1.6906736731489032e-10
2.810317233317529e-11
1.0287573456293254e-10
2.831661131880505e-10
5.892228686126778e-10
8.948138447969835e-10
9.124109516464913e-10
7.763504448221151e-10
5.685675770616411e-10
3.8306694730582344e-10
5.771818235322405e-10
9.599031391193553e-10
1.2358310191764599e-09
1.430878737589685e-09
1.5267345997111646e-09
1.7785574366988997e-09
2.3911009177192535e-09
2.519130263481116e-09
2.220731230504409e-09
1.4562216992527357e-09
1.0205690979776938e-09
1.3866252548121484e-09
2.4173043837069665e-09
3.910423137884682e-09
4.537618717285663e-09
3.5929727545921716e-09
2.0427263013330046e-09
8.591635029854205e-10
8.105746539894163e-10
1.9060165917303013e-09
2.9327022519077336e-09
3.0115241190627263e-09
2.1955784661928206e-09
1.258085984857443e-09
8.346054588272334e-10
9.677305248349223e-10
1.1150121474763509e-09
9.929274657812743e-10
6.101986414343545e-10
4.128055295024155e-10
4.439452635105742e-10
7.12465526923971e-10
8.858386420896411e-10
8.941375282975804e-10
6.824204580849098e-10
4.1727247478129506e-10
3.765209632282794e-10
6.076512508190773e-10
6.887595545032575e-10
5.761435645504678e-10
4.907199365365847e-10
8.723189032484909e-10
1.6400609215014474e-09
2.116694554177386e-09
1.96129167975949e-09
1.2906944796595274e-09
7.712221407697018e-10
7.837331853327142e-10
1.099917405067039e-09
1.284107998608028e-09
1.3363014603714917e-09
1.5922309574507304e-09
2.130058128780679e-09
2.5100256327255775e-09
2.521382014418357e-09
2.776183160989681e-09
3.4573339235977966e-09
3.5469230330628265e-09
2.421062195026272e-09
1.0194292431893508e-09
7.316232330143139e-10
1.9449988025668314e-09
3.1692664680667233e-09
3.2221450250172216e-09
2.2956566073483293e-09
1.8728068139265233e-09
2.5698941772140682e-09
3.45537023947597e-09
3.1608666188810293e-09
1.87931096424605e-09
1.271435087673612e-09
1.5466034862944669e-09
1.291103358304596e-09
3.8756277759145114e-10
1.2724773770505634e-10
1.1186719655217588e-09
2.302294993028047e-09
2.37054916947199e-09
1.0698049038954337e-09
2.8568139528492468e-28
2.6000204213238543e-29
2.2380259291886856e-30
2.920087490806884e-31
8.010269680265274e-14
2.66524970240514e-14
1.5658555028842236e-14
8.974402929851029e-14
2.83806205270665e-13
5.365968354370551e-13
9.322593236781972e-13
1.1008183571633562e-12
1.5147820130323314e-12
1.2807852729667625e-12
1.730730249462713e-12
1.3983223956724427e-12
2.340209076944601e-12
2.138272773581019e-12
3.4436752262953598e-12
3.3239006068071014e-12
4.3764518564683414e-12
4.714021232903087e-12
4.908973409028844e-12
5.583468934634577e-12
4.8245158563864815e-12
5.879113641709636e-12
4.396299550970301e-12
5.8201969123365155e-12
4.070438593691102e-12
5.3719655988011266e-12
4.275794950063153e-12
4.229307304743545e-12
3.990334293741913e-12
2.681301765915683e-12
2.9120251222712395e-12
1.070547590118721e-12
1.4745183199620485e-12
2.5502610629648933e-13
2.2295864349212762e-13
1.5505892161759238e-14
4.867045731697998e-13
4.733626569605177e-13
2.4395489512215158e-12
2.2613584318821123e-12
5.331198274664639e-12
8.265830396830079e-12
6.836657036680908e-12
1.4826205375694095e-11
1.4402348677606292e-11
1.7820457385915094e-11
2.2663583172033744e-11
2.1108090891380793e-11
2.996317201409487e-11
2.606623137615565e-11
2.6334158144342216e-11
3.120912147192944e-11
2.5480260302113877e-11
2.868152988831452e-11
2.2693097848432533e-11
1.8396899747813162e-11
2.6017382513005294e-11
2.3962548039904726e-11
1.5217270057072678e-11
1.3806964870216712e-11
3.9471673664865103e-11
5.457324542709626e-11
2.7023345669645386e-11
1.2278440232000322e-11
5.2952523499275766e-11
1.1378735448391517e-10
9.776834719981711e-11
2.0357276065260346e-11
1.3256251371093887e-11
7.272786870952038e-11
1.108046697180701e-10
9.455088468179097e-11
5.768848673115433e-11
4.852673724803714e-11
3.040521230283158e-11
2.0798470077266858e-11
8.395725131492853e-11
1.3551112096876212e-10
1.0799297968918543e-10
6.719783892312108e-11
9.494793328533247e-11
1.82117295820006e-10
2.0083071758382287e-10
1.34389041017721e-10
9.952308701627531e-11
1.061756195579083e-10
1.2685700352544663e-10
1.4447957756134866e-10
1.319083337753366e-10
1.3464526821063126e-10
1.3134039595916853e-10
7.383425590356442e-11
5.755173759685963e-11
9.25739010268923e-11
9.885092463004834e-11
1.1696262143562853e-10
1.5057233546356038e-10
1.5037448118066598e-10
1.4393104799503991e-10
1.3089054483188839e-10
1.1692851084776132e-10
1.464006051028904e-10
1.7114210505526976e-10
1.6888802176089234e-10
2.0442426301694618e-10
2.4110374615555623e-10
2.249578450083542e-10
2.151613287919443e-10
2.212522733165249e-10
1.9884603612580288e-10
1.8563364548705122e-10
2.024646680264762e-10
2.032118089058099e-10
2.019359886206507e-10
2.3161097413416737e-10
2.6089437095502033e-10
2.8780098443057256e-10
3.274241248790686e-10
3.365922446462827e-10
3.393140992575422e-10
4.0640607343842997e-10
4.575969235468059e-10
4.2824053268381836e-10
4.509736609775588e-10
5.56179936767643e-10
5.876799967628469e-10
5.479860653168316e-10
5.676126595890249e-10
6.264820838270669e-10
6.410976816644678e-10
6.186498707569461e-10
6.14013508349609e-10
6.672333983781903e-10
7.244545837715115e-10
6.935888783981211e-10
6.377332789071858e-10
6.498395041567778e-10
6.333784134642266e-10
5.205264548274552e-10
4.217771656081212e-10
3.6845829031239843e-10
2.803142334742124e-10
1.729140189342473e-10
9.622240416531109e-11
3.90226043503933e-11
8.629447630622423e-12
1.2822384360420827e-11
2.7980169786141637e-11
6.18154499716468e-11
1.0995537457980143e-10
1.3767366816084654e-10
1.730725775917286e-10
2.3134773158224395e-10
2.4760381065067657e-10
2.483301996920334e-10
3.300015244502928e-10
4.554121358399017e-10
5.867759199100464e-10
8.206728359461458e-10
1.162262547583381e-09
1.535132794545109e-09
2.0200249703912265e-09
2.64777594289026e-09
3.2236870517728126e-09
3.7129231150706432e-09
4.288278140473639e-09
4.8419022425144405e-09
5.107489190890799e-09
5.161338258671046e-09
5.131268755516565e-09
4.768014620517263e-09
3.9000263774563764e-09
2.8275374314953542e-09
1.8736379827173134e-09
1.0663872816620587e-09
4.222469714442634e-10
5.961738665499048e-11
2.619106801650366e-11
3.107582574002134e-10
8.960276016522229e-10
1.7051473625701673e-09
2.66493055719246e-09
3.7041240532906253e-09
4.573433193128349e-09
5.005622324534273e-09
5.102151813658372e-09
5.122916413578156e-09
4.984151023183788e-09
4.475152023246495e-09
3.776441626601162e-09
3.2192513139254918e-09
2.8227301398617583e-09
2.475311730205819e-09
2.273679477003126e-09
2.3272576270325835e-09
2.5303364737955087e-09
2.7186469203904663e-09
2.846371960519562e-09
2.940828250409292e-09
3.0043507471546307e-09
2.9879076025473676e-09
2.855233691175203e-09
2.6235917189858413e-09
2.44478314272092e-09
2.3442462080032153e-09
2.1643885079526424e-09
1.7582525104021144e-09
1.318250223539952e-09
1.0436084024379918e-09
9.417612645169894e-10
1.009673259718596e-09
1.2152412690705578e-09
1.739719985350504e-09
2.8175340955010655e-09
4.2547145479507484e-09
5.615726139000724e-09
6.794513481718453e-09
7.528519808155963e-09
7.34317877542263e-09
6.666514491973953e-09
6.0310290854084675e-09
5.011917914426809e-09
3.4286979390375967e-09
1.966016773520604e-09
8.459328973452248e-10
1.3639929228117104e-10
3.4268843429139686e-11
3.149523714935918e-10
8.49326060962649e-10
1.7146348802808695e-09
2.6418894993941867e-09
3.3897481218834763e-09
3.92481050350387e-09
3.8523251037783565e-09
3.2559033185972897e-09
2.864117269170353e-09
2.8016482783076335e-09
2.6020803287269084e-09
2.074603940039016e-09
1.427735533944267e-09
7.843770903619008e-10
3.660293521339134e-10
2.0421439690367354e-10
1.2173048758064536e-10
7.621379273524208e-11
1.5712391115180332e-10
3.9193101918929244e-10
8.452611834589376e-10
1.3111369233687222e-09
1.5292194910746222e-09
1.5365373961649408e-09
1.2173499790702408e-09
7.86484581816709e-10
6.551855722382983e-10
7.639755732240141e-10
7.717256586960657e-10
5.717347415604445e-10
2.8331271215324683e-10
5.956944816044489e-11
7.49564441846826e-12
5.188678922316491e-11
1.772733754737288e-10
2.788122199467536e-10
2.5667594387870236e-10
2.2895457783093952e-10
2.021122653554429e-10
2.0579736115089684e-10
3.8130753944419445e-10
5.848365257783588e-10
4.94298804642476e-10
2.4903541767062555e-10
8.209662794985623e-11
1.0594738134164731e-11
2.9981462136192294e-12
9.115069907679499e-12
3.764343305780167e-31
2.2141052594036425e-10
1.5097991044358042e-09
5.959437127626555e-09
1.0551813702386093e-08
1.1984852873468844e-08
1.0092584134548379e-08
6.449114635055975e-09
2.5184023541036714e-09
5.647205965672229e-10
9.346307808556134e-10
3.238585792483445e-09
6.0711773656234264e-09
7.982570761168261e-09
8.538699508425969e-09
7.017997863901389e-09
5.006349418493793e-09
2.684767301531676e-09
1.103197174283168e-09
1.7684003433017891e-09
4.7328482316296575e-09
7.011541765476999e-09
6.924813510427045e-09
5.166174358613944e-09
2.2005736146960753e-09
3.860184567018213e-10
2.6756767459427486e-10
1.8439323883882797e-09
3.5889684310933244e-09
4.479122605882998e-09
3.979167856169708e-09
2.3933347073747415e-09
1.0673041297757718e-09
1.7741230828497365e-10
6.494434620740886e-10
1.7875972567506934e-09
3.7197006791815735e-09
5.648863687299186e-09
5.759952332676887e-09
4.901016967802059e-09
3.5893060422728198e-09
2.418260491858352e-09
3.6436868549571103e-09
6.059765410900696e-09
7.801668479378202e-09
9.03298377500263e-09
9.638111536381464e-09
1.1227842057164153e-08
1.509476325753155e-08
1.5902998765272205e-08
1.4019237722113846e-08
9.19297116981043e-09
6.442743092842805e-09
8.753616291640475e-09
1.5260182923711337e-08
2.4686081238028907e-08
2.8645499561643023e-08
2.268205106669519e-08
1.2895511724350872e-08
5.423806908763499e-09
5.11707072414013e-09
1.2032478012069475e-08
1.851383430507913e-08
1.901142828591206e-08
1.3860451022756096e-08
7.94216168724304e-09
5.268774613853323e-09
6.1091788561577734e-09
7.0389519198886154e-09
6.268244437865624e-09
3.852118479927929e-09
2.6059969669463125e-09
2.8025787629183593e-09
4.497718343200658e-09
5.592204196663837e-09
5.644594173883837e-09
4.3080470508595305e-09
2.634196312682565e-09
2.3769363975025394e-09
3.836037076597305e-09
4.3480650856453214e-09
3.6371324375279963e-09
3.097862249509774e-09
5.506855537559362e-09
1.0353528433089792e-08
1.3362465359383632e-08
1.2381423705518375e-08
8.148015612342702e-09
4.8686425351672155e-09
4.947623415640983e-09
6.943660432434663e-09
8.106435864940228e-09
8.435927582781223e-09
1.0051583007611692e-08
1.3446828170428625e-08
1.5845522209270893e-08
1.5917213827071026e-08
1.7525746096344875e-08
2.1825777696041573e-08
2.2391344121032788e-08
1.528390558293122e-08
6.435547311999555e-09
4.618658883956641e-09
1.2278568521872753e-08
2.0007238791548714e-08
2.034105544171713e-08
1.4492233578147857e-08
1.1822828251965916e-08
1.6223465899949053e-08
2.1813381169106264e-08
1.995421144589491e-08
1.1863888254300862e-08
8.026433139450387e-09
9.763541683199255e-09
8.150596819310017e-09
2.446642185539572e-09
8.033013000331343e-10
7.062055958096161e-09
1.4534140993893015e-08
1.49650222783776e-08
6.753563447021316e-09
1.803475962453521e-27
1.6413649643054959e-28
1.41284172972271e-29
1.843419867324254e-30
5.05679720820483e-13
1.6825435088029057e-13
9.88507759600784e-14
5.665444172595326e-13
1.7916380893138404e-12
3.387478184479534e-12
5.8852529733339895e-12
6.949348046244482e-12
9.562656140544717e-12
8.085459854871827e-12
1.0925914161417924e-11
8.827459085463062e-12
1.477348853318152e-11
1.3498686340691108e-11
2.1739551807096987e-11
2.0983427499654244e-11
2.762807048076696e-11
2.975910969476022e-11
3.098982184218639e-11
3.5247839645547984e-11
3.045665038421922e-11
3.7114212925140456e-11
2.7753366844251548e-11
3.674227794104804e-11
2.5696241622747342e-11
3.3912641804701774e-11
2.6992634242521062e-11
2.6699162731009564e-11
2.519055178143496e-11
1.6926770040766078e-11
1.838330180668259e-11
6.7582519453745515e-12
9.308475771047989e-12
1.609952415855151e-12
1.4075139676430837e-12
9.788703167820511e-14
3.072513691878676e-12
2.9882876079486695e-12
1.5400610489068385e-11
1.4275712880509688e-11
3.365528206638078e-11
5.2181299435103085e-11
4.3159081524702217e-11
9.359624200517365e-11
9.09204801979902e-11
1.1249863332322199e-10
1.4307276619488655e-10
1.332531105076769e-10
1.8915428648192317e-10
1.6455331881785018e-10
1.6624471172651477e-10
1.9701983157769518e-10
1.6085414636850875e-10
1.8106341740727648e-10
1.4325908917672343e-10
1.1613765203631059e-10
1.642449411917994e-10
1.5127299187965857e-10
9.606499133317035e-11
8.71618861740768e-11
2.4918043606373543e-10
3.4451503648910633e-10
1.7059547854585018e-10
7.751247431688574e-11
3.3428359304585947e-10
7.18327346582194e-10
6.172010742520506e-10
1.285132971578735e-10
8.368529100806637e-11
4.591232232231296e-10
6.994979780354153e-10
5.968895789740045e-10
3.6418122022328953e-10
3.063440798300777e-10
1.9194483934371378e-10
1.3129850756556766e-10
5.300131094260762e-10
8.554671509796781e-10
6.817480808959592e-10
4.242127391803159e-10
5.993961041598631e-10
1.1496869266927373e-09
1.2678227482174056e-09
8.483835807750617e-10
6.282785582309642e-10
6.702752815958476e-10
8.008346371273041e-10
9.120840541171969e-10
8.327231424148294e-10
8.500011155216964e-10
8.291378119854331e-10
4.661077267384349e-10
3.633179376271621e-10
5.844090935149593e-10
6.240352692858904e-10
7.383724657824727e-10
9.505469803106526e-10
9.492979474749205e-10
9.086212458844578e-10
8.262979501389062e-10
7.381571293051974e-10
9.242112946430501e-10
1.080401726276369e-09
1.0661719405574798e-09
1.2905084145421551e-09
1.5220620517320296e-09
1.4201347120741984e-09
1.3582903574760962e-09
1.3967418360113483e-09
1.255293667354102e-09
1.1718852644380864e-09
1.278137701853874e-09
1.2828543219722438e-09
1.2748002055520953e-09
1.4621352016109301e-09
1.646998140314811e-09
1.8168567010579403e-09
2.066993330657191e-09
2.1248706859696538e-09
2.142053461767161e-09
2.5655978882010383e-09
2.8887602263572925e-09
2.7034364841059467e-09
2.8469482811840972e-09
3.51110419969408e-09
3.7099606949185415e-09
3.4593771693558456e-09
3.583277750839026e-09
3.954914102694908e-09
4.047180801932887e-09
3.9054701828670565e-09
3.876201324996501e-09
4.212172774223148e-09
4.573403971295071e-09
4.37855208866e-09
4.025941688707753e-09
4.102366988338874e-09
3.998449890936801e-09
3.2860275978636768e-09
2.66263394200863e-09
2.3260376094228544e-09
1.7695936464470343e-09
1.0915876282672443e-09
6.074417019300504e-10
2.463455097174901e-10
5.4476775974708684e-11
8.094633517277288e-11
1.7663580641765917e-10
3.902342958697952e-10
6.941364690531152e-10
8.69119079116986e-10
1.092588592040616e-09
1.4604733796563875e-09
1.563096260696373e-09
1.567681876690618e-09
2.0832641773033483e-09
2.8749678962388555e-09
3.7042533548566865e-09
5.1808194621539605e-09
7.337238620443095e-09
9.691128438290364e-09
1.275220066054021e-08
1.671512512112572e-08
2.0350790090991003e-08
2.343928480813223e-08
2.7071439282721836e-08
3.0566408772315994e-08
3.224303064984649e-08
3.258297403063737e-08
3.239314848708755e-08
3.009996415116082e-08
2.4620447606195313e-08
1.784994008991574e-08
1.1828075331263597e-08
6.7319883649600866e-09
2.6655997757888022e-09
3.76358158252969e-10
1.6534139911925218e-10
1.9617834993989314e-09
5.656526003952687e-09
1.0764412144407476e-08
1.682342035858185e-08
2.3383737276251208e-08
2.887159250068701e-08
3.1599956064393606e-08
3.2209336360683466e-08
3.234042104958296e-08
3.146441004527124e-08
2.8251154031927238e-08
2.3840270348691744e-08
2.0322787754418085e-08
1.781959217419989e-08
1.562637707139833e-08
1.4353494314914581e-08
1.4691727421044879e-08
1.5973742367290994e-08
1.716252598959926e-08
1.7968840448566724e-08
1.856513286077919e-08
1.896614355957178e-08
1.8862339753878483e-08
1.8024783602328095e-08
1.6562452713324318e-08
1.5433653377782362e-08
1.4798974507912998e-08
1.3663552166602065e-08
1.1099659238471608e-08
8.321972063606555e-09
6.588187747173042e-09
5.9452377052145045e-09
6.373958836271018e-09
7.671687598572563e-09
1.0982665398460383e-08
1.778679010427508e-08
2.6859555928300915e-08
3.5451475911858814e-08
4.289303378900234e-08
4.752673688576372e-08
4.635669885420935e-08
4.208498991553868e-08
3.807323880347269e-08
3.1639699447155116e-08
2.164500180139851e-08
1.241125271489439e-08
5.3402835164999e-09
8.610740810735081e-10
2.163355276387439e-10
1.9882604911668117e-09
5.36170419394581e-09
1.0824305824629595e-08
1.6677964635617303e-08
2.139911578943278e-08
2.4776907131788474e-08
2.4319314589216978e-08
2.0554167922998525e-08
1.808086467599708e-08
1.768650464668093e-08
1.6426653617229002e-08
1.3096751833419685e-08
9.013141068010967e-09
4.951688318926275e-09
2.310703983602334e-09
1.2891835523114758e-09
7.684714926237471e-10
4.811294871629224e-10
9.919063739041931e-10
2.474218425539517e-09
5.3360430588867705e-09
8.277066563688598e-09
9.653798388648599e-09
9.699995537443473e-09
7.684999658297075e-09
4.964992686107878e-09
4.136116141898722e-09
4.8228957326289915e-09
4.871821189751831e-09
3.609300011558189e-09
1.7885227202713e-09
3.760555276861344e-10
4.73191980819192e-11
3.275557270348026e-10
1.119107777848138e-09
1.7601115963844102e-09
1.6203676632971706e-09
1.4453656570809347e-09
1.2759130216443734e-09
1.2991766355727893e-09
2.4071535390116862e-09
3.692010168020059e-09
3.120455259444248e-09
1.572133842039683e-09
5.182671939780625e-10
6.688344382524113e-11
1.8926975005812186e-11
5.754245724748073e-11
7.567634907308153e-12
7.334402994583421e-10
4.853623451103625e-09
1.937528706257164e-08
3.39235350907737e-08
3.752226412975174e-08
3.183424925285491e-08
1.9298200508039727e-08
6.926031491397923e-09
1.6090985334877192e-09
4.556736147635891e-09
1.2368476206591504e-08
2.0503200509042194e-08
2.390292796294719e-08
2.4625392097235266e-08
2.1997286112586025e-08
1.6688137689529537e-08
9.568034406971903e-09
4.692004684300128e-09
7.033999363402091e-09
1.5445587130800388e-08
2.191529066404684e-08
2.301229711499681e-08
1.537645567386949e-08
5.9623118268951366e-09
1.375377014366171e-09
2.004746168943356e-09
5.6659003472757805e-09
9.496992762966469e-09
1.033941305260806e-08
7.860679846005341e-09
4.6612613511235645e-09
2.1619204732614025e-09
5.348754438812514e-10
2.4255140206360324e-09
6.238778299602814e-09
1.1964605647880989e-08
1.8612787843869644e-08
1.8165420948902485e-08
1.4325638858325965e-08
1.0454373617572804e-08
9.635710676002173e-09
1.6631867817439267e-08
2.7681483429401586e-08
3.39762422211598e-08
3.721255408724039e-08
3.775186210205656e-08
4.4598667253926995e-08
5.532808086420792e-08
5.849025629067192e-08
5.5927200161030565e-08
4.34898982832731e-08
3.3525667485169595e-08
4.458419632875848e-08
6.697505814789655e-08
9.970513370685328e-08
1.125362388793802e-07
8.727405419952282e-08
5.4204121276702346e-08
2.853401028306616e-08
3.2647767728663194e-08
6.195273513580886e-08
8.457460447866059e-08
8.321632037883396e-08
6.192789145390467e-08
4.135676711977289e-08
3.217382478905246e-08
3.746350726934981e-08
4.216017847864264e-08
3.918632229576384e-08
2.795366349446988e-08
2.056487880987401e-08
2.2762410846969096e-08
3.0695038644675714e-08
3.863266535641303e-08
3.8255277713620705e-08
2.9242185350772024e-08
2.178593880009238e-08
1.8870618382241665e-08
2.475345780121051e-08
2.9055219379733517e-08
2.6448333570931328e-08
2.2258535578172793e-08
2.8449839934090135e-08
4.570167571860422e-08
6.065754341036169e-08
5.974228026320423e-08
4.413813043090401e-08
3.1207876772636135e-08
3.015517352550653e-08
4.0060170140906906e-08
4.442099171752419e-08
4.345824713592335e-08
5.0397262480941544e-08
6.608198641956703e-08
7.422087052794509e-08
7.24187405983867e-08
7.512086548161588e-08
8.997232245514704e-08
9.633172974448622e-08
7.021030041311864e-08
3.3695157242841625e-08
2.7621391227474356e-08
5.7015511781934586e-08
8.789998269504117e-08
8.505286361969795e-08
5.980785336175786e-08
4.9866445595987e-08
6.820099615459962e-08
8.997027848682387e-08
7.738971295877525e-08
4.338321809063495e-08
3.169896971819502e-08
4.529246008271477e-08
4.060828495383294e-08
1.5066103991115823e-08
3.476228084974308e-09
2.5990286788236776e-08
5.948695739785237e-08
6.132274885521061e-08
2.8340495050916514e-08
6.089563478801673e-27
5.543103506794851e-28
4.854066261071295e-29
5.34253613922019e-30
1.7840008280477514e-12
7.238971132898614e-13
1.429132491440164e-13
5.952726666070475e-13
1.8309193975228753e-12
5.212860754493433e-12
7.275474570547629e-12
1.0190921159265576e-11
1.0657229162442118e-11
8.924032799842672e-12
8.805872069393437e-12
7.098175642601508e-12
1.1381143351184962e-11
1.1809156584178688e-11
2.0650630317486756e-11
1.963297155102778e-11
2.997674333084221e-11
2.6830148592478458e-11
3.398065860223502e-11
3.018088806256362e-11
3.013879525379835e-11
2.8303604654645938e-11
2.2073969023664298e-11
2.539734785846355e-11
1.775767007144893e-11
2.24591135674928e-11
1.6279388015288223e-11
1.7828417052594175e-11
1.2641576908396701e-11
1.0771375917585089e-11
7.882065662448961e-12
2.562930803362709e-12
4.526841022981808e-12
4.4697664805468674e-12
4.304338214432529e-12
1.4876573738086485e-11
1.6880206684478512e-11
3.220213398759937e-11
4.841636755749664e-11
4.8330477032921226e-11
9.664702164266062e-11
9.74608602031896e-11
1.1747341091113148e-10
1.733024382404243e-10
1.7216862358005402e-10
2.2070417052087358e-10
2.3529080927207564e-10
2.5302775896996374e-10
3.0846556773006367e-10
2.867531778964517e-10
2.97960398366992e-10
3.120938087259062e-10
3.0246681055495247e-10
3.203877623390626e-10
2.6043940580945234e-10
1.9648019824206218e-10
2.836470369440613e-10
3.401563702098005e-10
1.5706788669617249e-10
9.742837978093863e-11
4.1921906165145035e-10
6.227150633668662e-10
3.436311910852199e-10
4.7773526036783093e-11
5.741993520925409e-10
1.4723122763596847e-09
1.2423305972184416e-09
2.637176590829967e-10
1.3304372454149762e-10
8.4303706529098e-10
1.199101109088129e-09
7.856023879817576e-10
5.834442376439521e-10
8.595684437718081e-10
6.029016950033571e-10
2.0895402856811758e-10
6.992592375549086e-10
1.3258110017006888e-09
1.0042937108535247e-09
5.158457963762869e-10
1.4319052609299e-09
2.909288605960047e-09
2.944571062586921e-09
2.1174613392150395e-09
1.7444522596174592e-09
1.8018465315977217e-09
1.994366768268013e-09
1.7765168532206166e-09
1.4400237024844811e-09
1.7114104647987996e-09
1.557031747804702e-09
7.845711070938511e-10
8.489204313560051e-10
1.3349504342857988e-09
1.3741840510799707e-09
1.5749336425231618e-09
1.945060640532602e-09
2.0234725566991966e-09
1.8661767073100697e-09
1.6525557010439685e-09
1.893725940227569e-09
2.580441651707876e-09
2.9541549724335623e-09
3.215172834541815e-09
3.82208027373962e-09
4.164120772628253e-09
3.968554884110052e-09
3.696543556756571e-09
3.4124693280581613e-09
3.0958849647905384e-09
2.9626022124074453e-09
2.957385497054468e-09
2.9980919171745117e-09
3.1960265447879055e-09
3.4734206311718915e-09
3.8515477395520175e-09
4.560550768798642e-09
5.186495141013563e-09
5.299273776708581e-09
5.7947076341438834e-09
7.128894871676993e-09
7.870772539706183e-09
7.755579830063747e-09
8.717848438650522e-09
1.082511090947182e-08
1.1822583766335727e-08
1.1511104777679428e-08
1.1976183154502533e-08
1.3573156191524605e-08
1.4382805305236946e-08
1.3852927125332916e-08
1.4082904009180777e-08
1.5971211505113456e-08
1.7130082986931068e-08
1.6335329814377153e-08
1.5787675626998862e-08
1.62363298519606e-08
1.552548818443168e-08
1.333843698377867e-08
1.1405311317714088e-08
9.77191838750281e-09
7.57975673148488e-09
5.162257127110054e-09
3.0533556482235438e-09
1.482927121580199e-09
7.257549861771233e-10
5.947986478848953e-10
9.302233300518346e-10
1.9762708016223585e-09
3.279638225779798e-09
4.3353977841637106e-09
5.749452709032774e-09
7.46415342267992e-09
8.394416028551475e-09
9.063386761034076e-09
1.087511449358411e-08
1.3467519454627743e-08
1.6372229449803892e-08
2.0722949352658488e-08
2.7138782434118374e-08
3.545619161301628e-08
4.6397376786283886e-08
5.99748844338304e-08
7.455520426998555e-08
8.971954252578267e-08
1.0594449981089588e-07
1.2094373735119444e-07
1.3126157103251363e-07
1.3634800682719048e-07
1.3627321317583758e-07
1.2806439296356882e-07
1.0931293769691464e-07
8.335559987399042e-08
5.701649678479773e-08
3.455008677212806e-08
1.6640807981698892e-08
4.420479645263117e-09
8.304250270631934e-10
6.933914179785401e-09
2.0543693721828435e-08
4.044729896293498e-08
6.711810025429101e-08
9.637430886794448e-08
1.1883799099191824e-07
1.2999864737261457e-07
1.3430872489609447e-07
1.3552836920953672e-07
1.3064965927336583e-07
1.1735065946634178e-07
1.0005774482735798e-07
8.475405732930263e-08
7.349122734993027e-08
6.613569705101303e-08
6.26889376639283e-08
6.308322474689892e-08
6.760017341913942e-08
7.601764269468567e-08
8.475577718895719e-08
8.895682287838016e-08
8.91654422059147e-08
9.013748459927748e-08
9.193665533538659e-08
8.919525469808347e-08
8.066804273659093e-08
7.194992421379463e-08
6.589152928024035e-08
5.8229705923782366e-08
4.544536579165828e-08
3.1730684118838934e-08
2.3849178649057092e-08
2.42529372154171e-08
3.219543528555652e-08
4.685733251658428e-08
6.917163765474309e-08
1.0141390320951772e-07
1.418204170783985e-07
1.79092764996791e-07
1.996089596961269e-07
2.0105022018166696e-07
1.9087319509290237e-07
1.7437513856630576e-07
1.495828959390453e-07
1.127111588904533e-07
6.810675876129894e-08
2.9589665501921726e-08
7.072148689020462e-09
1.309249264456686e-10
5.5134236638202984e-09
2.0801193752471867e-08
4.310267404716331e-08
6.89678167599282e-08
9.293541426315337e-08
1.0689782036120037e-07
1.0654461395499672e-07
9.58108818245103e-08
8.363932645516674e-08
7.652937647113518e-08
7.215346957416874e-08
6.217127273260072e-08
4.374583752799894e-08
2.490046232511544e-08
1.280247045842607e-08
6.929301951845796e-09
3.89273541908795e-09
2.0748179171948476e-09
3.0640197247954923e-09
9.804045994045634e-09
2.1641692042624743e-08
3.3495553395858456e-08
4.081456164699904e-08
4.0180674074012855e-08
3.2245641432609813e-08
2.3643906608496306e-08
1.962382331070166e-08
2.022445295025274e-08
2.137848545798135e-08
1.758186673770323e-08
9.539233338779369e-09
3.0514222678108444e-09
6.248710623854336e-10
1.6821018070501433e-09
4.050559471485175e-09
5.591228958003442e-09
6.016474773220404e-09
5.468414101097149e-09
4.80764725630832e-09
6.155380739604409e-09
1.0260726286788775e-08
1.403870982878436e-08
1.331332810866638e-08
8.18169842073446e-09
2.9151005450961406e-09
4.3302890005477193e-10
1.7631878749921665e-11
3.855658118552521e-11
2.2744894202513303e-11
9.262624784273365e-10
6.321026786496967e-09
2.6514316727837346e-08
4.6510971794301314e-08
5.2269355628034624e-08
4.3542286544429804e-08
2.7098189867411104e-08
1.0860955129337884e-08
4.237210941493645e-09
8.780733913071416e-09
2.0004160373642568e-08
3.116356792589211e-08
3.5955196747314336e-08
3.84099924992135e-08
3.509637293749099e-08
2.8699437555193236e-08
1.7343789109006416e-08
7.777646393675284e-09
1.0641195422199172e-08
2.6092126911185472e-08
3.802742878881172e-08
3.738751956115517e-08
2.590799021649007e-08
9.168672821870911e-09
1.0904767219081955e-09
2.4990098915088566e-09
9.055466691257398e-09
1.2964043497963238e-08
1.2292246540264864e-08
8.749492407764208e-09
5.368404300607414e-09
3.614947107519223e-09
8.940958129695465e-10
7.08877942427685e-10
4.2237988907776086e-09
1.2397709007504773e-08
2.5099354948505505e-08
2.818123792679019e-08
2.653089626220318e-08
2.508259303172952e-08
2.6053866375656425e-08
3.7456678234786335e-08
5.489810065762663e-08
6.654697143825474e-08
7.573331177245277e-08
7.8601645589052e-08
8.615357014694692e-08
1.1469841923785308e-07
1.302290333416317e-07
1.3482345177032653e-07
1.1327600214144985e-07
9.00121384391779e-08
9.876285095054603e-08
1.3794246745306853e-07
1.9926465069341135e-07
2.2672442985597767e-07
1.949457075380406e-07
1.372414009831217e-07
8.985778321311061e-08
9.432729539955335e-08
1.4475507482379826e-07
1.8571906294208154e-07
1.8765099781300407e-07
1.4760082617826783e-07
1.0744195137741378e-07
9.222897931778421e-08
1.0423183731016141e-07
1.1443450868484833e-07
1.0828517646111624e-07
8.61935796172336e-08
6.955935669214149e-08
6.480543266168274e-08
7.519679781417195e-08
8.526198192479603e-08
8.969307320526987e-08
7.985598645154849e-08
6.242888750690693e-08
5.2039274170512015e-08
6.144784963855149e-08
7.008917260909335e-08
6.863677309506822e-08
5.64984189033584e-08
6.171097492881037e-08
8.886106829484015e-08
1.1648076704282719e-07
1.1874233483671733e-07
9.341919620063092e-08
7.370442741502193e-08
7.783884761852637e-08
9.958476853228922e-08
1.0749332476496806e-07
1.0135162342531894e-07
1.0500818267980403e-07
1.289264119369191e-07
1.4469056869927525e-07
1.3450208367239824e-07
1.336787642007643e-07
1.6304390473837276e-07
1.8838006368113168e-07
1.5459651661978042e-07
9.143232952481309e-08
6.738289030391905e-08
1.1310943347068686e-07
1.6522804768436047e-07
1.6099282974634871e-07
1.1132691081785517e-07
8.996325648272515e-08
1.2457718247286238e-07
1.67188250156995e-07
1.465112401690457e-07
7.760130256339472e-08
5.594686528290306e-08
8.90116781146307e-08
9.02831045222315e-08
3.895753139032224e-08
9.856638891146966e-09
4.5964336050243673e-08
1.0355493903177007e-07
1.1081914539977511e-07
5.13681330054542e-08
1.2052871906703195e-26
1.0983626439574877e-27
9.575962169188376e-29
9.770367081374722e-30
3.787266003292761e-12
2.4073669746595525e-12
8.711675062079297e-13
2.4590065652808437e-13
1.0733752589333702e-12
3.6723769496741304e-12
8.116200751029513e-12